 &FCI NORB= 16,NELEC=10,MS2= 0,
  ORBSYM=1,1,1,1,2,2,3,3,5,5,5,5,6,6,7,7,
  ISYM=1
 &END
   0.845737535135       1   1   1   1
   0.137835941196       2   1   1   1
   0.572082829807E-01   2   1   2   1
   0.564531615914       2   2   1   1
   0.321000231880E-01   2   2   2   1
   0.562373715215       2   2   2   2
  -0.868400350829E-01   3   1   1   1
  -0.356817687063E-01   3   1   2   1
  -0.421359428279E-01   3   1   2   2
   0.340040119814E-01   3   1   3   1
  -0.115317994467       3   2   1   1
  -0.317751342464E-01   3   2   2   1
  -0.498985970861E-01   3   2   2   2
   0.182277851855E-01   3   2   3   1
   0.367775013631E-01   3   2   3   2
   0.450434893817       3   3   1   1
   0.308884252030E-01   3   3   2   1
   0.394084286403       3   3   2   2
  -0.180200210791E-01   3   3   3   1
  -0.278511722972E-01   3   3   3   2
   0.356269804671       3   3   3   3
   0.719739922465E-01   4   1   1   1
   0.151272626582E-01   4   1   2   1
   0.508782620400E-01   4   1   2   2
  -0.178204288877E-01   4   1   3   1
  -0.147439644882E-01   4   1   3   2
   0.172025412126E-01   4   1   3   3
   0.177097307991E-01   4   1   4   1
  -0.700289554522E-01   4   2   1   1
   0.249503610267E-02   4   2   2   1
  -0.102746559712       4   2   2   2
   0.823558874875E-02   4   2   3   1
   0.198688182932E-01   4   2   3   2
  -0.256673764258E-01   4   2   3   3
  -0.208892516569E-01   4   2   4   1
   0.579015496519E-01   4   2   4   2
  -0.535904941046E-01   4   3   1   1
  -0.140100279334E-01   4   3   2   1
   0.381866960333E-02   4   3   2   2
  -0.543060205339E-02   4   3   3   1
   0.201732521439E-01   4   3   3   2
  -0.153051050025E-01   4   3   3   3
   0.352865436985E-02   4   3   4   1
  -0.671918932957E-02   4   3   4   2
   0.340291008707E-01   4   3   4   3
   0.465572157269       4   4   1   1
   0.139187626816E-01   4   4   2   1
   0.453993759146       4   4   2   2
  -0.147100565734E-01   4   4   3   1
  -0.374380066525E-01   4   4   3   2
   0.358560554538       4   4   3   3
   0.289861215249E-01   4   4   4   1
  -0.661193955452E-01   4   4   4   2
  -0.101457701968E-01   4   4   4   3
   0.401974316403       4   4   4   4
   0.630715809260       5   5   1   1
   0.528467573779E-01   5   5   2   1
   0.505285388077       5   5   2   2
  -0.321256941248E-01   5   5   3   1
  -0.699689433916E-01   5   5   3   2
   0.401139597343       5   5   3   3
   0.466676308027E-01   5   5   4   1
  -0.708522143514E-01   5   5   4   2
  -0.355582504220E-01   5   5   4   3
   0.440057431559       5   5   4   4
   0.568498041455       5   5   5   5
  -0.150123538431       6   5   1   1
  -0.286258036329E-01   6   5   2   1
  -0.103647045955       6   5   2   2
   0.296843910732E-01   6   5   3   1
   0.299072977494E-01   6   5   3   2
  -0.416895913197E-01   6   5   3   3
  -0.322941289439E-01   6   5   4   1
   0.419914443239E-01   6   5   4   2
  -0.417529578114E-02   6   5   4   3
  -0.639457287683E-01   6   5   4   4
  -0.108207611105       6   5   5   5
   0.736104388872E-01   6   5   6   5
   0.502864264673       6   6   1   1
   0.341026037511E-01   6   6   2   1
   0.424926187797       6   6   2   2
  -0.211383158750E-01   6   6   3   1
  -0.518245616481E-01   6   6   3   2
   0.356922476538       6   6   3   3
   0.304160453056E-01   6   6   4   1
  -0.492639278644E-01   6   6   4   2
  -0.300061972080E-01   6   6   4   3
   0.387836386842       6   6   4   4
   0.467212392724       6   6   5   5
  -0.668674054829E-01   6   6   6   5
   0.417978200405       6   6   6   6
   0.630715809260       7   7   1   1
   0.528467573779E-01   7   7   2   1
   0.505285388077       7   7   2   2
  -0.321256941248E-01   7   7   3   1
  -0.699689433916E-01   7   7   3   2
   0.401139597343       7   7   3   3
   0.466676308027E-01   7   7   4   1
  -0.708522143514E-01   7   7   4   2
  -0.355582504220E-01   7   7   4   3
   0.440057431559       7   7   4   4
   0.523844430418       7   7   5   5
  -0.101431967170       7   7   6   5
   0.436458397363       7   7   6   6
   0.568498041455       7   7   7   7
  -0.150123538431       8   7   1   1
  -0.286258036329E-01   8   7   2   1
  -0.103647045955       8   7   2   2
   0.296843910732E-01   8   7   3   1
   0.299072977494E-01   8   7   3   2
  -0.416895913197E-01   8   7   3   3
  -0.322941289439E-01   8   7   4   1
   0.419914443239E-01   8   7   4   2
  -0.417529578114E-02   8   7   4   3
  -0.639457287683E-01   8   7   4   4
  -0.101431967170       8   7   5   5
   0.573641530724E-01   8   7   6   5
  -0.691304382819E-01   8   7   6   6
  -0.108207611105       8   7   7   7
   0.736104388872E-01   8   7   8   7
   0.502864264673       8   8   1   1
   0.341026037511E-01   8   8   2   1
   0.424926187797       8   8   2   2
  -0.211383158750E-01   8   8   3   1
  -0.518245616481E-01   8   8   3   2
   0.356922476538       8   8   3   3
   0.304160453056E-01   8   8   4   1
  -0.492639278644E-01   8   8   4   2
  -0.300061972080E-01   8   8   4   3
   0.387836386842       8   8   4   4
   0.436458397363       8   8   5   5
  -0.691304382819E-01   8   8   6   5
   0.383905664738       8   8   6   6
   0.467212392724       8   8   7   7
  -0.668674054829E-01   8   8   8   7
   0.417978200405       8   8   8   8
   0.526217101339       9   9   1   1
   0.100525465896E-01   9   9   2   1
   0.542851171570       9   9   2   2
  -0.246054535835E-01   9   9   3   1
  -0.408219568047E-01   9   9   3   2
   0.383482024945       9   9   3   3
   0.461432884570E-01   9   9   4   1
  -0.999490497836E-01   9   9   4   2
   0.217498918943E-02   9   9   4   3
   0.449666672819       9   9   4   4
   0.499509198645       9   9   5   5
  -0.960908967116E-01   9   9   6   5
   0.420332124921       9   9   6   6
   0.499509198645       9   9   7   7
  -0.960908967116E-01   9   9   8   7
   0.420332124921       9   9   8   8
   0.538293947841       9   9   9   9
  -0.994169361713E-01  10   9   1   1
  -0.156187427221E-01  10   9   2   1
  -0.484618836821E-01  10   9   2   2
   0.637371855043E-02  10   9   3   1
   0.306122834805E-01  10   9   3   2
  -0.237391338503E-01  10   9   3   3
  -0.140857475996E-01  10   9   4   1
   0.228742171137E-01  10   9   4   2
   0.198521852846E-01  10   9   4   3
  -0.415671857047E-01  10   9   4   4
  -0.766024120052E-01  10   9   5   5
   0.301043915376E-01  10   9   6   5
  -0.538006636057E-01  10   9   6   6
  -0.766024120052E-01  10   9   7   7
   0.301043915376E-01  10   9   8   7
  -0.538006636057E-01  10   9   8   8
  -0.507531353651E-01  10   9   9   9
   0.343139555710E-01  10   9  10   9
   0.371895883449      10  10   1   1
   0.863674879895E-02  10  10   2   1
   0.374326931711      10  10   2   2
  -0.163158843621E-01  10  10   3   1
   0.165347223226E-02  10  10   3   2
   0.331455301090      10  10   3   3
   0.177981238813E-01  10  10   4   1
  -0.230831606966E-01  10  10   4   2
   0.198865065363E-01  10  10   4   3
   0.333209211631      10  10   4   4
   0.351588608664      10  10   5   5
  -0.399853582061E-01  10  10   6   5
   0.313174709569      10  10   6   6
   0.351588608664      10  10   7   7
  -0.399853582061E-01  10  10   8   7
   0.313174709569      10  10   8   8
   0.369001475373      10  10   9   9
   0.114514593402E-03  10  10  10   9
   0.351693321035      10  10  10  10
   0.400212538878E-01  11   9   1   1
  -0.640178620151E-02  11   9   2   1
   0.975576002957E-01  11   9   2   2
  -0.894724855692E-02  11   9   3   1
  -0.112861251606E-01  11   9   3   2
   0.200514446678E-01  11   9   3   3
   0.181545158457E-01  11   9   4   1
  -0.569289836127E-01  11   9   4   2
   0.156190342784E-01  11   9   4   3
   0.577482678860E-01  11   9   4   4
   0.463343961330E-01  11   9   5   5
  -0.350007647651E-01  11   9   6   5
   0.335113166730E-01  11   9   6   6
   0.463343961330E-01  11   9   7   7
  -0.350007647651E-01  11   9   8   7
   0.335113166730E-01  11   9   8   8
   0.908067288915E-01  11   9   9   9
  -0.108494079754E-01  11   9  10   9
   0.253449190932E-01  11   9  10  10
   0.620788914905E-01  11   9  11   9
   0.617401369605E-01  11  10   1   1
   0.171674116734E-01  11  10   2   1
   0.152764729495E-01  11  10   2   2
  -0.592497835330E-02  11  10   3   1
  -0.158601927031E-01  11  10   3   2
   0.162747497397E-01  11  10   3   3
   0.403511889102E-02  11  10   4   1
   0.998933836324E-04  11  10   4   2
  -0.163843155583E-01  11  10   4   3
   0.128004580115E-01  11  10   4   4
   0.368265754329E-01  11  10   5   5
  -0.961662069142E-02  11  10   6   5
   0.252007766727E-01  11  10   6   6
   0.368265754329E-01  11  10   7   7
  -0.961662069142E-02  11  10   8   7
   0.252007766727E-01  11  10   8   8
   0.126995893811E-01  11  10   9   9
  -0.141555193555E-01  11  10  10   9
  -0.692318288291E-03  11  10  10  10
  -0.604185069301E-02  11  10  11   9
   0.123445256566E-01  11  10  11  10
   0.566958523501      11  11   1   1
   0.399435396329E-01  11  11   2   1
   0.530951255064      11  11   2   2
  -0.391107743201E-01  11  11   3   1
  -0.645266540802E-01  11  11   3   2
   0.386350979502      11  11   3   3
   0.469889401619E-01  11  11   4   1
  -0.971458678675E-01  11  11   4   2
  -0.993024407513E-02  11  11   4   3
   0.446121553371      11  11   4   4
   0.502905058253      11  11   5   5
  -0.100376853100      11  11   6   5
   0.431535501671      11  11   6   6
   0.502905058253      11  11   7   7
  -0.100376853100      11  11   8   7
   0.431535501671      11  11   8   8
   0.512447073761      11  11   9   9
  -0.605245080841E-01  11  11  10   9
   0.349629898207      11  11  10  10
   0.865891654301E-01  11  11  11   9
   0.216603378060E-01  11  11  11  10
   0.528344227481      11  11  11  11
   0.772673174258E-01  12   9   1   1
   0.193284791162E-01  12   9   2   1
   0.279257994472E-01  12   9   2   2
  -0.131088619074E-01  12   9   3   1
  -0.154620939695E-01  12   9   3   2
   0.187821847913E-01  12   9   3   3
   0.141795014916E-01  12   9   4   1
  -0.100204380804E-01  12   9   4   2
  -0.442231409835E-02  12   9   4   3
   0.195664965159E-01  12   9   4   4
   0.471023158542E-01  12   9   5   5
  -0.289254558134E-01  12   9   6   5
   0.292926155483E-01  12   9   6   6
   0.471023158542E-01  12   9   7   7
  -0.289254558134E-01  12   9   8   7
   0.292926155483E-01  12   9   8   8
   0.260556298633E-01  12   9   9   9
  -0.160151122568E-01  12   9  10   9
   0.151696855376E-01  12   9  10  10
   0.447979049981E-02  12   9  11   9
   0.800139949804E-02  12   9  11  10
   0.306211822657E-01  12   9  11  11
   0.191111613872E-01  12   9  12   9
  -0.139385475648      12  10   1   1
  -0.298565256409E-01  12  10   2   1
  -0.745271751346E-01  12  10   2   2
   0.206239306003E-01  12  10   3   1
   0.312000904122E-01  12  10   3   2
  -0.383492274882E-01  12  10   3   3
  -0.205311275938E-01  12  10   4   1
   0.226388631817E-01  12  10   4   2
   0.146786434558E-01  12  10   4   3
  -0.514551860333E-01  12  10   4   4
  -0.936886526527E-01  12  10   5   5
   0.418043400451E-01  12  10   6   5
  -0.650468194727E-01  12  10   6   6
  -0.936886526527E-01  12  10   7   7
   0.418043400451E-01  12  10   8   7
  -0.650468194727E-01  12  10   8   8
  -0.685655249343E-01  12  10   9   9
   0.301704621146E-01  12  10  10   9
  -0.160993413990E-01  12  10  10  10
  -0.130140166567E-01  12  10  11   9
  -0.156944047093E-01  12  10  11  10
  -0.793364244402E-01  12  10  11  11
  -0.205904075198E-01  12  10  12   9
   0.411824511949E-01  12  10  12  10
  -0.164191325205      12  11   1   1
  -0.481619857974E-01  12  11   2   1
  -0.886244670454E-01  12  11   2   2
   0.383838816804E-01  12  11   3   1
   0.354637103211E-01  12  11   3   2
  -0.468555207050E-01  12  11   3   3
  -0.274316011929E-01  12  11   4   1
   0.287040658220E-01  12  11   4   2
   0.272677402397E-02  12  11   4   3
  -0.497272641020E-01  12  11   4   4
  -0.914247731078E-01  12  11   5   5
   0.559067133913E-01  12  11   6   5
  -0.594660283223E-01  12  11   6   6
  -0.914247731078E-01  12  11   7   7
   0.559067133913E-01  12  11   8   7
  -0.594660283223E-01  12  11   8   8
  -0.693067293134E-01  12  11   9   9
   0.243739122122E-01  12  11  10   9
  -0.338941186774E-01  12  11  10  10
  -0.243720639295E-01  12  11  11   9
  -0.150133628864E-01  12  11  11  10
  -0.916708479426E-01  12  11  11  11
  -0.275522782933E-01  12  11  12   9
   0.414018826837E-01  12  11  12  10
   0.674143709813E-01  12  11  12  11
   0.664042134861      12  12   1   1
   0.857469853480E-01  12  12   2   1
   0.496586157352      12  12   2   2
  -0.623980526352E-01  12  12   3   1
  -0.805074959886E-01  12  12   3   2
   0.399594376849      12  12   3   3
   0.551816689866E-01  12  12   4   1
  -0.603154431376E-01  12  12   4   2
  -0.299380048226E-01  12  12   4   3
   0.422644635559      12  12   4   4
   0.532386450460      12  12   5   5
  -0.115935862358      12  12   6   5
   0.446619133209      12  12   6   6
   0.532386450460      12  12   7   7
  -0.115935862358      12  12   8   7
   0.446619133209      12  12   8   8
   0.473278924589      12  12   9   9
  -0.718499288688E-01  12  12  10   9
   0.351143207126      12  12  10  10
   0.390960707707E-01  12  12  11   9
   0.414308753196E-01  12  12  11  10
   0.502827916790      12  12  11  11
   0.548258207345E-01  12  12  12   9
  -0.102036944403      12  12  12  10
  -0.120947723417      12  12  12  11
   0.564089713385      12  12  12  12
   0.536745963378      13  13   1   1
   0.264022560347E-01  13  13   2   1
   0.479497964120      13  13   2   2
  -0.239176965976E-01  13  13   3   1
  -0.487676378363E-01  13  13   3   2
   0.373547217545      13  13   3   3
   0.395360073122E-01  13  13   4   1
  -0.662365782488E-01  13  13   4   2
  -0.170112557984E-01  13  13   4   3
   0.417870905919      13  13   4   4
   0.509788804104      13  13   5   5
  -0.887658815633E-01  13  13   6   5
   0.430310291470      13  13   6   6
   0.473255899831      13  13   7   7
  -0.839230398843E-01  13  13   8   7
   0.402752126516      13  13   8   8
   0.478972316212      13  13   9   9
  -0.582209466462E-01  13  13  10   9
   0.344507374678      13  13  10  10
   0.481669238392E-01  13  13  11   9
   0.229882551348E-01  13  13  11  10
   0.469491857392      13  13  11  11
   0.321125739089E-01  13  13  12   9
  -0.724336829256E-01  13  13  12  10
  -0.660828560566E-01  13  13  12  11
   0.474846647615      13  13  12  12
   0.478506687773      13  13  13  13
  -0.176433737258      14  13   1   1
  -0.293965639072E-01  14  13   2   1
  -0.117207036257      14  13   2   2
   0.250585464240E-01  14  13   3   1
   0.390777138444E-01  14  13   3   2
  -0.548871095884E-01  14  13   3   3
  -0.330764685501E-01  14  13   4   1
   0.486801079873E-01  14  13   4   2
   0.811675777011E-02  14  13   4   3
  -0.802637865297E-01  14  13   4   4
  -0.137477643082      14  13   5   5
   0.773777224999E-01  14  13   6   5
  -0.901342387599E-01  14  13   6   6
  -0.124872955592      14  13   7   7
   0.621126831883E-01  14  13   8   7
  -0.874272999782E-01  14  13   8   8
  -0.112347715221      14  13   9   9
   0.411848408088E-01  14  13  10   9
  -0.405069003017E-01  14  13  10  10
  -0.379591686721E-01  14  13  11   9
  -0.154402047815E-01  14  13  11  10
  -0.118543514065      14  13  11  11
  -0.329176634583E-01  14  13  12   9
   0.487857302590E-01  14  13  12  10
   0.597970955813E-01  14  13  12  11
  -0.134869607692      14  13  12  12
  -0.108426927228      14  13  13  13
   0.911126384552E-01  14  13  14  13
   0.516874724054      14  14   1   1
   0.346762104821E-01  14  14   2   1
   0.449786719315      14  14   2   2
  -0.313451968292E-01  14  14   3   1
  -0.492517852105E-01  14  14   3   2
   0.357280166496      14  14   3   3
   0.404154846666E-01  14  14   4   1
  -0.603978574939E-01  14  14   4   2
  -0.122288312779E-01  14  14   4   3
   0.396865527018      14  14   4   4
   0.477166903040      14  14   5   5
  -0.901094879714E-01  14  14   6   5
   0.416371415049      14  14   6   6
   0.448361192093      14  14   7   7
  -0.845599701016E-01  14  14   8   7
   0.388908729363      14  14   8   8
   0.444102028543      14  14   9   9
  -0.529958019492E-01  14  14  10   9
   0.330925561603      14  14  10  10
   0.454390126341E-01  14  14  11   9
   0.202760999910E-01  14  14  11  10
   0.449761582865      14  14  11  11
   0.348115308055E-01  14  14  12   9
  -0.706031110695E-01  14  14  12  10
  -0.713287768642E-01  14  14  12  11
   0.463017698230      14  14  12  12
   0.446784348744      14  14  13  13
  -0.104756442570      14  14  14  13
   0.435933648982      14  14  14  14
   0.536745963378      15  15   1   1
   0.264022560347E-01  15  15   2   1
   0.479497964120      15  15   2   2
  -0.239176965976E-01  15  15   3   1
  -0.487676378363E-01  15  15   3   2
   0.373547217545      15  15   3   3
   0.395360073122E-01  15  15   4   1
  -0.662365782488E-01  15  15   4   2
  -0.170112557984E-01  15  15   4   3
   0.417870905919      15  15   4   4
   0.473255899831      15  15   5   5
  -0.839230398843E-01  15  15   6   5
   0.402752126516      15  15   6   6
   0.509788804104      15  15   7   7
  -0.887658815633E-01  15  15   8   7
   0.430310291470      15  15   8   8
   0.478972316212      15  15   9   9
  -0.582209466462E-01  15  15  10   9
   0.344507374678      15  15  10  10
   0.481669238392E-01  15  15  11   9
   0.229882551348E-01  15  15  11  10
   0.469491857392      15  15  11  11
   0.321125739089E-01  15  15  12   9
  -0.724336829256E-01  15  15  12  10
  -0.660828560566E-01  15  15  12  11
   0.474846647615      15  15  12  12
   0.442280613594      15  15  13  13
  -0.100930871973      15  15  14  13
   0.417925278317      15  15  14  14
   0.478506687773      15  15  15  15
  -0.176433737258      16  15   1   1
  -0.293965639072E-01  16  15   2   1
  -0.117207036257      16  15   2   2
   0.250585464240E-01  16  15   3   1
   0.390777138444E-01  16  15   3   2
  -0.548871095884E-01  16  15   3   3
  -0.330764685501E-01  16  15   4   1
   0.486801079873E-01  16  15   4   2
   0.811675777011E-02  16  15   4   3
  -0.802637865297E-01  16  15   4   4
  -0.124872955592      16  15   5   5
   0.621126831883E-01  16  15   6   5
  -0.874272999782E-01  16  15   6   6
  -0.137477643082      16  15   7   7
   0.773777224999E-01  16  15   8   7
  -0.901342387599E-01  16  15   8   8
  -0.112347715221      16  15   9   9
   0.411848408088E-01  16  15  10   9
  -0.405069003017E-01  16  15  10  10
  -0.379591686721E-01  16  15  11   9
  -0.154402047815E-01  16  15  11  10
  -0.118543514065      16  15  11  11
  -0.329176634583E-01  16  15  12   9
   0.487857302590E-01  16  15  12  10
   0.597970955813E-01  16  15  12  11
  -0.134869607692      16  15  12  12
  -0.100930871973      16  15  13  13
   0.726767190701E-01  16  15  14  13
  -0.986958128875E-01  16  15  14  14
  -0.108426927228      16  15  15  15
   0.911126384552E-01  16  15  16  15
   0.516874724054      16  16   1   1
   0.346762104821E-01  16  16   2   1
   0.449786719315      16  16   2   2
  -0.313451968292E-01  16  16   3   1
  -0.492517852105E-01  16  16   3   2
   0.357280166496      16  16   3   3
   0.404154846666E-01  16  16   4   1
  -0.603978574939E-01  16  16   4   2
  -0.122288312779E-01  16  16   4   3
   0.396865527018      16  16   4   4
   0.448361192093      16  16   5   5
  -0.845599701016E-01  16  16   6   5
   0.388908729363      16  16   6   6
   0.477166903040      16  16   7   7
  -0.901094879714E-01  16  16   8   7
   0.416371415049      16  16   8   8
   0.444102028543      16  16   9   9
  -0.529958019492E-01  16  16  10   9
   0.330925561603      16  16  10  10
   0.454390126341E-01  16  16  11   9
   0.202760999910E-01  16  16  11  10
   0.449761582865      16  16  11  11
   0.348115308055E-01  16  16  12   9
  -0.706031110695E-01  16  16  12  10
  -0.713287768642E-01  16  16  12  11
   0.463017698230      16  16  12  12
   0.417925278317      16  16  13  13
  -0.986958128875E-01  16  16  14  13
   0.405824373076      16  16  14  14
   0.446784348744      16  16  15  15
  -0.104756442570      16  16  16  15
   0.435933648982      16  16  16  16
   0.942997939273E-01   5   1   5   1
  -0.187689141417E-01   5   2   5   1
   0.285739624356E-01   5   2   5   2
   0.213086508920E-01   5   3   5   1
  -0.103962334263E-01   5   3   5   2
   0.179398839800E-01   5   3   5   3
  -0.570858265526E-03   5   4   5   1
  -0.185764149460E-02   5   4   5   2
  -0.950227398769E-02   5   4   5   3
   0.209955586750E-01   5   4   5   4
  -0.318229753445E-01   6   1   5   1
   0.326205282248E-03   6   1   5   2
   0.298940833768E-02   6   1   5   3
  -0.123476021484E-01   6   1   5   4
   0.215889135017E-01   6   1   6   1
  -0.946678224346E-02   6   2   5   1
  -0.477589449196E-02   6   2   5   2
  -0.243737354396E-02   6   2   5   3
   0.124265006719E-01   6   2   5   4
  -0.933979443949E-03   6   2   6   1
   0.117963377309E-01   6   2   6   2
   0.280233830978E-01   6   3   5   1
  -0.373477172056E-02   6   3   5   2
   0.156571095645E-01   6   3   5   3
  -0.113571317104E-01   6   3   5   4
  -0.231672123427E-02   6   3   6   1
  -0.832636201447E-02   6   3   6   2
   0.227254671179E-01   6   3   6   3
  -0.527553987611E-01   6   4   5   1
   0.285638451036E-01   6   4   5   2
  -0.218853479461E-01   6   4   5   3
   0.916225290708E-02   6   4   5   4
   0.762971511247E-02   6   4   6   1
   0.700846907958E-02   6   4   6   2
  -0.233521073708E-01   6   4   6   3
   0.553433428764E-01   6   4   6   4
  -0.626623683626E-01  13   9   5   1
   0.390206334073E-01  13   9   5   2
  -0.172693445211E-01  13   9   5   3
  -0.320682366862E-02  13   9   5   4
   0.167917586271E-01  13   9   6   1
  -0.656862576207E-04  13   9   6   2
  -0.143106936693E-01  13   9   6   3
   0.535729849183E-01  13   9   6   4
   0.713029753540E-01  13   9  13   9
   0.319728555186E-01  13  10   5   1
  -0.772635411186E-02  13  10   5   2
   0.100065014402E-01  13  10   5   3
   0.461935910683E-02  13  10   5   4
  -0.122474726775E-01  13  10   6   1
   0.164932224024E-02  13  10   6   2
   0.114308699051E-01  13  10   6   3
  -0.164150117710E-01  13  10   6   4
  -0.215588267091E-01  13  10  13   9
   0.179283534889E-01  13  10  13  10
   0.300054790773E-01  13  11   5   1
  -0.450968542239E-02  13  11   5   2
   0.100648551509E-01  13  11   5   3
  -0.157986994208E-01  13  11   5   4
  -0.277281495075E-02  13  11   6   1
  -0.148553326584E-01  13  11   6   2
   0.152090113310E-01  13  11   6   3
  -0.236782627854E-01  13  11   6   4
  -0.191857944268E-01  13  11  13   9
   0.636070940690E-02  13  11  13  10
   0.260679328822E-01  13  11  13  11
  -0.236520210636E-01  13  12   5   1
  -0.543516564188E-02  13  12   5   2
   0.343922415990E-02  13  12   5   3
  -0.134944422442E-01  13  12   5   4
   0.197364872321E-01  13  12   6   1
  -0.310928096983E-02  13  12   6   2
  -0.828627382444E-03  13  12   6   3
  -0.747515844684E-03  13  12   6   4
   0.582360635627E-02  13  12  13   9
  -0.109361426176E-01  13  12  13  10
   0.200907949782E-02  13  12  13  11
   0.231082730857E-01  13  12  13  12
   0.238930864669E-01  14   9   5   1
  -0.871389734758E-02  14   9   5   2
   0.327595935393E-02  14   9   5   3
   0.159353256157E-01  14   9   5   4
  -0.156107414214E-01  14   9   6   1
   0.972509573927E-02  14   9   6   2
   0.199932001237E-02  14   9   6   3
  -0.933253404154E-02  14   9   6   4
  -0.195665732082E-01  14   9  13   9
   0.150875303761E-01  14   9  13  10
  -0.634874457774E-02  14   9  13  11
  -0.161910269529E-01  14   9  13  12
   0.215641941401E-01  14   9  14   9
  -0.302030322193E-01  14  10   5   1
   0.133184069798E-01  14  10   5   2
  -0.303141146047E-02  14  10   5   3
  -0.238998978522E-02  14  10   5   4
   0.114645758453E-01  14  10   6   1
   0.236839617985E-02  14  10   6   2
  -0.271181272005E-02  14  10   6   3
   0.231587238044E-01  14  10   6   4
   0.298518532280E-01  14  10  13   9
  -0.598697586941E-02  14  10  13  10
  -0.103927145785E-01  14  10  13  11
   0.800445068990E-02  14  10  13  12
  -0.758570953863E-02  14  10  14   9
   0.197202579528E-01  14  10  14  10
   0.856633434631E-02  14  11   5   1
  -0.215006821102E-01  14  11   5   2
   0.937820357913E-02  14  11   5   3
  -0.539172775135E-02  14  11   5   4
   0.615118758777E-02  14  11   6   1
   0.121395172768E-03  14  11   6   2
   0.363857191515E-02  14  11   6   3
  -0.271367343592E-01  14  11   6   4
  -0.265395094061E-01  14  11  13   9
   0.578205249649E-03  14  11  13  10
   0.663619239139E-02  14  11  13  11
   0.127492393372E-01  14  11  13  12
  -0.753595653536E-03  14  11  14   9
  -0.969286106879E-02  14  11  14  10
   0.249285880004E-01  14  11  14  11
   0.583546445731E-01  14  12   5   1
  -0.150259631801E-01  14  12   5   2
   0.117861137930E-01  14  12   5   3
  -0.120711530951E-02  14  12   5   4
  -0.205492312532E-01  14  12   6   1
  -0.842871575128E-02  14  12   6   2
   0.194118945025E-01  14  12   6   3
  -0.401957992473E-01  14  12   6   4
  -0.440383297794E-01  14  12  13   9
   0.204546312111E-01  14  12  13  10
   0.239604184755E-01  14  12  13  11
  -0.135193697660E-01  14  12  13  12
   0.135625082609E-01  14  12  14   9
  -0.216532529477E-01  14  12  14  10
   0.986091753413E-02  14  12  14  11
   0.452947364809E-01  14  12  14  12
   0.942997939273E-01   7   1   7   1
  -0.187689141417E-01   7   2   7   1
   0.285739624356E-01   7   2   7   2
   0.213086508920E-01   7   3   7   1
  -0.103962334263E-01   7   3   7   2
   0.179398839800E-01   7   3   7   3
  -0.570858265526E-03   7   4   7   1
  -0.185764149460E-02   7   4   7   2
  -0.950227398769E-02   7   4   7   3
   0.209955586750E-01   7   4   7   4
  -0.318229753445E-01   8   1   7   1
   0.326205282248E-03   8   1   7   2
   0.298940833768E-02   8   1   7   3
  -0.123476021484E-01   8   1   7   4
   0.215889135017E-01   8   1   8   1
  -0.946678224346E-02   8   2   7   1
  -0.477589449196E-02   8   2   7   2
  -0.243737354396E-02   8   2   7   3
   0.124265006719E-01   8   2   7   4
  -0.933979443949E-03   8   2   8   1
   0.117963377309E-01   8   2   8   2
   0.280233830978E-01   8   3   7   1
  -0.373477172056E-02   8   3   7   2
   0.156571095645E-01   8   3   7   3
  -0.113571317104E-01   8   3   7   4
  -0.231672123427E-02   8   3   8   1
  -0.832636201447E-02   8   3   8   2
   0.227254671179E-01   8   3   8   3
  -0.527553987611E-01   8   4   7   1
   0.285638451036E-01   8   4   7   2
  -0.218853479461E-01   8   4   7   3
   0.916225290708E-02   8   4   7   4
   0.762971511247E-02   8   4   8   1
   0.700846907958E-02   8   4   8   2
  -0.233521073708E-01   8   4   8   3
   0.553433428764E-01   8   4   8   4
  -0.626623683626E-01  15   9   7   1
   0.390206334073E-01  15   9   7   2
  -0.172693445211E-01  15   9   7   3
  -0.320682366862E-02  15   9   7   4
   0.167917586271E-01  15   9   8   1
  -0.656862576207E-04  15   9   8   2
  -0.143106936693E-01  15   9   8   3
   0.535729849183E-01  15   9   8   4
   0.713029753540E-01  15   9  15   9
   0.319728555186E-01  15  10   7   1
  -0.772635411186E-02  15  10   7   2
   0.100065014402E-01  15  10   7   3
   0.461935910683E-02  15  10   7   4
  -0.122474726775E-01  15  10   8   1
   0.164932224024E-02  15  10   8   2
   0.114308699051E-01  15  10   8   3
  -0.164150117710E-01  15  10   8   4
  -0.215588267091E-01  15  10  15   9
   0.179283534889E-01  15  10  15  10
   0.300054790773E-01  15  11   7   1
  -0.450968542239E-02  15  11   7   2
   0.100648551509E-01  15  11   7   3
  -0.157986994208E-01  15  11   7   4
  -0.277281495075E-02  15  11   8   1
  -0.148553326584E-01  15  11   8   2
   0.152090113310E-01  15  11   8   3
  -0.236782627854E-01  15  11   8   4
  -0.191857944268E-01  15  11  15   9
   0.636070940690E-02  15  11  15  10
   0.260679328822E-01  15  11  15  11
  -0.236520210636E-01  15  12   7   1
  -0.543516564188E-02  15  12   7   2
   0.343922415990E-02  15  12   7   3
  -0.134944422442E-01  15  12   7   4
   0.197364872321E-01  15  12   8   1
  -0.310928096983E-02  15  12   8   2
  -0.828627382444E-03  15  12   8   3
  -0.747515844684E-03  15  12   8   4
   0.582360635627E-02  15  12  15   9
  -0.109361426176E-01  15  12  15  10
   0.200907949782E-02  15  12  15  11
   0.231082730857E-01  15  12  15  12
   0.238930864669E-01  16   9   7   1
  -0.871389734758E-02  16   9   7   2
   0.327595935393E-02  16   9   7   3
   0.159353256157E-01  16   9   7   4
  -0.156107414214E-01  16   9   8   1
   0.972509573927E-02  16   9   8   2
   0.199932001237E-02  16   9   8   3
  -0.933253404154E-02  16   9   8   4
  -0.195665732082E-01  16   9  15   9
   0.150875303761E-01  16   9  15  10
  -0.634874457774E-02  16   9  15  11
  -0.161910269529E-01  16   9  15  12
   0.215641941401E-01  16   9  16   9
  -0.302030322193E-01  16  10   7   1
   0.133184069798E-01  16  10   7   2
  -0.303141146047E-02  16  10   7   3
  -0.238998978522E-02  16  10   7   4
   0.114645758453E-01  16  10   8   1
   0.236839617985E-02  16  10   8   2
  -0.271181272005E-02  16  10   8   3
   0.231587238044E-01  16  10   8   4
   0.298518532280E-01  16  10  15   9
  -0.598697586941E-02  16  10  15  10
  -0.103927145785E-01  16  10  15  11
   0.800445068990E-02  16  10  15  12
  -0.758570953863E-02  16  10  16   9
   0.197202579528E-01  16  10  16  10
   0.856633434631E-02  16  11   7   1
  -0.215006821102E-01  16  11   7   2
   0.937820357913E-02  16  11   7   3
  -0.539172775135E-02  16  11   7   4
   0.615118758777E-02  16  11   8   1
   0.121395172768E-03  16  11   8   2
   0.363857191515E-02  16  11   8   3
  -0.271367343592E-01  16  11   8   4
  -0.265395094061E-01  16  11  15   9
   0.578205249649E-03  16  11  15  10
   0.663619239139E-02  16  11  15  11
   0.127492393372E-01  16  11  15  12
  -0.753595653536E-03  16  11  16   9
  -0.969286106879E-02  16  11  16  10
   0.249285880004E-01  16  11  16  11
   0.583546445731E-01  16  12   7   1
  -0.150259631801E-01  16  12   7   2
   0.117861137930E-01  16  12   7   3