 &FCI NORB= 18,NELEC=12,MS2= 0,
  ORBSYM=1,1,1,1,1,2,2,3,3,5,5,5,5,5,6,6,7,7,
  ISYM=1
 &END
    2.06810402747       1   1   1   1
  -0.222898071842       2   1   1   1
   0.588549333368E-01   2   1   2   1
   0.888911399306       2   2   1   1
  -0.164975164431E-02   2   2   2   1
   0.758212919604       2   2   2   2
   0.860148728184E-03   3   1   1   1
   0.151810461416E-01   3   1   2   1
   0.295422286033E-01   3   1   2   2
   0.170537661460E-01   3   1   3   1
   0.174741871156       3   2   1   1
   0.628186120302E-02   3   2   2   1
   0.139329625957       3   2   2   2
   0.193793663310E-01   3   2   3   1
   0.640533764725E-01   3   2   3   2
   0.641449799249       3   3   1   1
  -0.554503712222E-02   3   3   2   1
   0.531039608015       3   3   2   2
   0.414822522849E-02   3   3   3   1
   0.507166203596E-01   3   3   3   2
   0.493635884278       3   3   3   3
   0.491831807203E-02   4   1   1   1
  -0.123983360500E-01   4   1   2   1
  -0.202128153718E-01   4   1   2   2
  -0.132250069171E-01   4   1   3   1
  -0.140140895855E-01   4   1   3   2
  -0.303283665794E-02   4   1   3   3
   0.103330301546E-01   4   1   4   1
  -0.101783292014       4   2   1   1
  -0.228864861219E-02   4   2   2   1
  -0.619844086262E-01   4   2   2   2
  -0.115222752221E-01   4   2   3   1
  -0.352663916204E-01   4   2   3   2
  -0.332998594339E-01   4   2   3   3
   0.862963728023E-02   4   2   4   1
   0.277018651965E-01   4   2   4   2
  -0.194379727748       4   3   1   1
   0.113479254292E-02   4   3   2   1
  -0.136520151642       4   3   2   2
  -0.761637844220E-02   4   3   3   1
  -0.423345918056E-01   4   3   3   2
  -0.722662165793E-01   4   3   3   3
   0.533044257942E-02   4   3   4   1
   0.180250160109E-01   4   3   4   2
   0.543848055862E-01   4   3   4   3
   0.450439289248       4   4   1   1
  -0.115866635724E-02   4   4   2   1
   0.402216095360       4   4   2   2
   0.556463174982E-02   4   4   3   1
   0.313978265336E-01   4   4   3   2
   0.368780398825       4   4   3   3
  -0.397747077884E-02   4   4   4   1
  -0.184154781699E-01   4   4   4   2
  -0.302928661592E-01   4   4   4   3
   0.324668725705       4   4   4   4
  -0.133181504203       5   1   1   1
   0.216812484436E-01   5   1   2   1
  -0.254809943416E-01   5   1   2   2
  -0.636020449539E-02   5   1   3   1
  -0.126438341791E-01   5   1   3   2
  -0.579186301260E-02   5   1   3   3
   0.452751612043E-02   5   1   4   1
   0.824382205865E-02   5   1   4   2
   0.669535217659E-02   5   1   4   3
  -0.517212672145E-02   5   1   4   4
   0.190423445750E-01   5   1   5   1
   0.127216670726       5   2   1   1
  -0.673782688848E-02   5   2   2   1
   0.728821532280E-01   5   2   2   2
   0.538968344381E-03   5   2   3   1
   0.178367831732E-01   5   2   3   2
   0.508967641096E-01   5   2   3   3
  -0.138402018549E-03   5   2   4   1
  -0.123772059773E-01   5   2   4   2
  -0.199849451084E-01   5   2   4   3
   0.214738067876E-01   5   2   4   4
  -0.407635760180E-02   5   2   5   1
   0.199271715695E-01   5   2   5   2
  -0.128912124372       5   3   1   1
   0.868837838078E-02   5   3   2   1
  -0.635042146432E-01   5   3   2   2
   0.789450788923E-02   5   3   3   1
  -0.287031541504E-02   5   3   3   2
  -0.794287820766E-01   5   3   3   3
  -0.570145550858E-02   5   3   4   1
   0.486162442884E-02   5   3   4   2
   0.242684508263E-01   5   3   4   3
  -0.290869793631E-01   5   3   4   4
  -0.231529870789E-02   5   3   5   1
  -0.208344350085E-01   5   3   5   2
   0.443115376297E-01   5   3   5   3
   0.424920039555E-01   5   4   1   1
  -0.564532035856E-02   5   4   2   1
  -0.538920081831E-03   5   4   2   2
  -0.482212664637E-02   5   4   3   1
  -0.315254469549E-02   5   4   3   2
   0.266734812664E-01   5   4   3   3
   0.334203542668E-02   5   4   4   1
  -0.790750188123E-02   5   4   4   2
   0.287182550128E-02   5   4   4   3
   0.979168859497E-02   5   4   4   4
   0.115172565420E-02   5   4   5   1
   0.113287459188E-01   5   4   5   2
  -0.189139876685E-01   5   4   5   3
   0.226844463612E-01   5   4   5   4
   0.540036689344       5   5   1   1
  -0.107076464457E-01   5   5   2   1
   0.455100303629       5   5   2   2
  -0.453843673818E-02   5   5   3   1
   0.255995076008E-01   5   5   3   2
   0.413865390482       5   5   3   3
   0.384731596661E-02   5   5   4   1
  -0.489287972946E-02   5   5   4   2
  -0.620056591237E-01   5   5   4   3
   0.329208691937       5   5   4   4
  -0.169977325235E-02   5   5   5   1
   0.312074169137E-01   5   5   5   2
  -0.565721607490E-01   5   5   5   3
   0.382345690183E-02   5   5   5   4
   0.392236180072       5   5   5   5
   0.727453538661       6   6   1   1
   0.420689377485E-03   6   6   2   1
   0.647907925451       6   6   2   2
   0.125043587678E-01   6   6   3   1
   0.847004423390E-01   6   6   3   2
   0.489930580070       6   6   3   3
  -0.774470305312E-02   6   6   4   1
  -0.290846799405E-01   6   6   4   2
  -0.104916575896       6   6   4   3
   0.376440481031       6   6   4   4
  -0.994966822707E-02   6   6   5   1
   0.585054261165E-01   6   6   5   2
  -0.630133190070E-01   6   6   5   3
   0.784978758262E-03   6   6   5   4
   0.440432196845       6   6   5   5
   0.616368568449       6   6   6   6
  -0.204197877415       7   6   1   1
   0.238717865886E-02   7   6   2   1
  -0.136898906544       7   6   2   2
  -0.631090311472E-02   7   6   3   1
  -0.413755004946E-01   7   6   3   2
  -0.790140098064E-01   7   6   3   3
   0.412088196812E-02   7   6   4   1
   0.240721821903E-01   7   6   4   2
   0.380714544175E-01   7   6   4   3
  -0.387343704251E-01   7   6   4   4
   0.642072571808E-02   7   6   5   1
  -0.294318214068E-01   7   6   5   2
   0.265528833037E-01   7   6   5   3
  -0.123745724450E-01   7   6   5   4
  -0.493479162473E-01   7   6   5   5
  -0.110317611384       7   6   6   6
   0.566232112726E-01   7   6   7   6
   0.476921937451       7   7   1   1
  -0.170823384370E-02   7   7   2   1
   0.429356081722       7   7   2   2
   0.575983694197E-02   7   7   3   1
   0.369644945633E-01   7   7   3   2
   0.358516801113       7   7   3   3
  -0.352516579615E-02   7   7   4   1
  -0.977456090426E-02   7   7   4   2
  -0.531866402294E-01   7   7   4   3
   0.305906693659       7   7   4   4
  -0.572563905358E-02   7   7   5   1
   0.208677951796E-01   7   7   5   2
  -0.242459337925E-01   7   7   5   3
  -0.103244166146E-01   7   7   5   4
   0.348540497827       7   7   5   5
   0.418392856218       7   7   6   6
  -0.376441663193E-01   7   7   7   6
   0.351662829138       7   7   7   7
   0.727453538661       8   8   1   1
   0.420689377485E-03   8   8   2   1
   0.647907925451       8   8   2   2
   0.125043587678E-01   8   8   3   1
   0.847004423390E-01   8   8   3   2
   0.489930580070       8   8   3   3
  -0.774470305312E-02   8   8   4   1
  -0.290846799405E-01   8   8   4   2
  -0.104916575896       8   8   4   3
   0.376440481031       8   8   4   4
  -0.994966822707E-02   8   8   5   1
   0.585054261165E-01   8   8   5   2
  -0.630133190070E-01   8   8   5   3
   0.784978758262E-03   8   8   5   4
   0.440432196845       8   8   5   5
   0.561076750385       8   8   6   6
  -0.100402887815       8   8   7   6
   0.390799772487       8   8   7   7
   0.616368568449       8   8   8   8
  -0.204197877415       9   8   1   1
   0.238717865886E-02   9   8   2   1
  -0.136898906544       9   8   2   2
  -0.631090311472E-02   9   8   3   1
  -0.413755004946E-01   9   8   3   2
  -0.790140098064E-01   9   8   3   3
   0.412088196812E-02   9   8   4   1
   0.240721821903E-01   9   8   4   2
   0.380714544175E-01   9   8   4   3
  -0.387343704251E-01   9   8   4   4
   0.642072571808E-02   9   8   5   1
  -0.294318214068E-01   9   8   5   2
   0.265528833037E-01   9   8   5   3
  -0.123745724450E-01   9   8   5   4
  -0.493479162473E-01   9   8   5   5
  -0.100402887815       9   8   6   6
   0.443775599706E-01   9   8   7   6
  -0.427321825714E-01   9   8   7   7
  -0.110317611384       9   8   8   8
   0.566232112726E-01   9   8   9   8
   0.476921937451       9   9   1   1
  -0.170823384370E-02   9   9   2   1
   0.429356081722       9   9   2   2
   0.575983694197E-02   9   9   3   1
   0.369644945633E-01   9   9   3   2
   0.358516801113       9   9   3   3
  -0.352516579615E-02   9   9   4   1
  -0.977456090426E-02   9   9   4   2
  -0.531866402294E-01   9   9   4   3
   0.305906693659       9   9   4   4
  -0.572563905358E-02   9   9   5   1
   0.208677951796E-01   9   9   5   2
  -0.242459337925E-01   9   9   5   3
  -0.103244166146E-01   9   9   5   4
   0.348540497827       9   9   5   5
   0.390799772487       9   9   6   6
  -0.427321825714E-01   9   9   7   6
   0.316631178008       9   9   7   7
   0.418392856218       9   9   8   8
  -0.376441663193E-01   9   9   9   8
   0.351662829138       9   9   9   9
    2.08412742584      10  10   1   1
  -0.228000468772      10  10   2   1
   0.887178053461      10  10   2   2
  -0.102763883521E-02  10  10   3   1
   0.172951874743      10  10   3   2
   0.641114052394      10  10   3   3
   0.643466825146E-02  10  10   4   1
  -0.100696696380      10  10   4   2
  -0.193757364581      10  10   4   3
   0.449976081226      10  10   4   4
  -0.134571620060      10  10   5   1
   0.127690493613      10  10   5   2
  -0.129747473494      10  10   5   3
   0.430237373085E-01  10  10   5   4
   0.540913062044      10  10   5   5
   0.726820121136      10  10   6   6
  -0.204022474746      10  10   7   6
   0.476757383584      10  10   7   7
   0.726820121136      10  10   8   8
  -0.204022474746      10  10   9   8
   0.476757383584      10  10   9   9
    2.10064654157      10  10  10  10
   0.139073656739      11  10   1   1
  -0.242564602915E-01  11  10   2   1
   0.258425222242E-01  11  10   2   2
   0.477645198890E-02  11  10   3   1
   0.123001304937E-01  11  10   3   2
   0.602272019336E-02  11  10   3   3
  -0.329373006926E-02  11  10   4   1
  -0.798005629803E-02  11  10   4   2
  -0.673232728830E-02  11  10   4   3
   0.507562557875E-02  11  10   4   4
  -0.189747253440E-01  11  10   5   1
   0.455576385767E-02  11  10   5   2
   0.180508027540E-02  11  10   5   3
  -0.899833757623E-03  11  10   5   4
   0.239572627400E-02  11  10   5   5
   0.101956829120E-01  11  10   6   6
  -0.660142121919E-02  11  10   7   6
   0.580261941774E-02  11  10   7   7
   0.101956829120E-01  11  10   8   8
  -0.660142121919E-02  11  10   9   8
   0.580261941774E-02  11  10   9   9
   0.140709877550      11  10  10  10
   0.192942449079E-01  11  10  11  10
   0.574053104926      11  11   1   1
  -0.125781209022E-01  11  11   2   1
   0.475482438504      11  11   2   2
  -0.773638793310E-02  11  11   3   1
   0.171006034952E-01  11  11   3   2
   0.469362708633      11  11   3   3
   0.591463969914E-02  11  11   4   1
  -0.107660135142E-01  11  11   4   2
  -0.539501661331E-01  11  11   4   3
   0.353380318631      11  11   4   4
   0.639198735731E-04  11  11   5   1
   0.449530627101E-01  11  11   5   2
  -0.786527477897E-01  11  11   5   3
   0.262609782209E-01  11  11   5   4
   0.408519626410      11  11   5   5
   0.464781882228      11  11   6   6
  -0.622813725903E-01  11  11   7   6
   0.346812823166      11  11   7   7
   0.464781882228      11  11   8   8
  -0.622813725903E-01  11  11   9   8
   0.346812823166      11  11   9   9
   0.575192895818      11  11  10  10
   0.666191158310E-03  11  11  11  10
   0.467300220473      11  11  11  11
  -0.913326050984E-01  12  10   1   1
   0.167322298345E-01  12  10   2   1
  -0.154696217214E-01  12  10   2   2
  -0.260460885179E-02  12  10   3   1
  -0.724330770300E-02  12  10   3   2
  -0.388040981420E-02  12  10   3   3
   0.177591059153E-02  12  10   4   1
   0.484005752930E-02  12  10   4   2
   0.401770818331E-02  12  10   4   3
  -0.310348415012E-02  12  10   4   4
   0.124386501377E-01  12  10   5   1
  -0.291856084494E-02  12  10   5   2
  -0.819760452784E-03  12  10   5   3
   0.358462166996E-03  12  10   5   4
  -0.164642087344E-02  12  10   5   5
  -0.568641559002E-02  12  10   6   6
   0.383818262293E-02  12  10   7   6
  -0.332246680490E-02  12  10   7   7
  -0.568641559002E-02  12  10   8   8
   0.383818262293E-02  12  10   9   8
  -0.332246680490E-02  12  10   9   9
  -0.924862068606E-01  12  10  10  10
  -0.127294745476E-01  12  10  11  10
  -0.781904640767E-03  12  10  11  11
   0.843526898475E-02  12  10  12  10
  -0.147022487041      12  11   1   1
   0.591727738095E-02  12  11   2   1
  -0.101135627572      12  11   2   2
   0.170678437807E-02  12  11   3   1
  -0.165386474161E-01  12  11   3   2
  -0.637789001579E-01  12  11   3   3
  -0.165815497116E-02  12  11   4   1
   0.161107185321E-02  12  11   4   2
   0.403314673618E-01  12  11   4   3
  -0.221787268627E-01  12  11   4   4
   0.163064807971E-02  12  11   5   1
  -0.174093942704E-01  12  11   5   2
   0.269562341218E-01  12  11   5   3
   0.107587400126E-02  12  11   5   4
  -0.627113257599E-01  12  11   5   5
  -0.924517847828E-01  12  11   6   6
   0.274542544268E-01  12  11   7   6
  -0.465942542253E-01  12  11   7   7
  -0.924517847828E-01  12  11   8   8
   0.274542544268E-01  12  11   9   8
  -0.465942542253E-01  12  11   9   9
  -0.147504574782      12  11  10  10
  -0.206741819891E-02  12  11  11  10
  -0.623069289364E-01  12  11  11  11
   0.130557319163E-02  12  11  12  10
   0.401320527428E-01  12  11  12  11
   0.360137369145      12  12   1   1
  -0.495046565614E-02  12  12   2   1
   0.321299196667      12  12   2   2
  -0.261569244034E-02  12  12   3   1
   0.449137145202E-02  12  12   3   2
   0.332297096817      12  12   3   3
   0.189586661555E-02  12  12   4   1
  -0.978387478813E-02  12  12   4   2
   0.526951828475E-03  12  12   4   3
   0.306752333661      12  12   4   4
  -0.478822347179E-03  12  12   5   1
   0.178369867272E-01  12  12   5   2
  -0.260972652805E-01  12  12   5   3
   0.228576142949E-01  12  12   5   4
   0.291621241071      12  12   5   5
   0.316241145369      12  12   6   6
  -0.255720503230E-01  12  12   7   6
   0.265330863364      12  12   7   7
   0.316241145369      12  12   8   8
  -0.255720503230E-01  12  12   9   8
   0.265330863364      12  12   9   9
   0.360575644660      12  12  10  10
   0.685750878218E-03  12  12  11  10
   0.330221333476      12  12  11  11
  -0.590362071562E-03  12  12  12  10
  -0.160711903881E-02  12  12  12  11
   0.318002385965      12  12  12  12
   0.101562308598      13  10   1   1
  -0.114405062658E-01  13  10   2   1
   0.279101010074E-01  13  10   2   2
   0.109293460325E-01  13  10   3   1
   0.151516853737E-01  13  10   3   2
   0.492902567274E-02  13  10   3   3
  -0.817012701294E-02  13  10   4   1
  -0.944532438195E-02  13  10   4   2
  -0.698983968238E-02  13  10   4   3
   0.528482351681E-02  13  10   4   4
  -0.170879529201E-01  13  10   5   1
   0.324599488869E-02  13  10   5   2
   0.457659598345E-02  13  10   5   3
  -0.257297989809E-02  13  10   5   4
  -0.433305966828E-03  13  10   5   5
   0.113683905808E-01  13  10   6   6
  -0.677013469310E-02  13  10   7   6
   0.613859617800E-02  13  10   7   7
   0.113683905808E-01  13  10   8   8
  -0.677013469310E-02  13  10   9   8
   0.613859617800E-02  13  10   9   9
   0.102029946848      13  10  10  10
   0.163816261783E-01  13  10  11  10
  -0.276209288353E-02  13  10  11  11
  -0.105460564361E-01  13  10  12  10
  -0.591850102041E-03  13  10  12  11
  -0.558218239888E-03  13  10  12  12
   0.172983168527E-01  13  10  13  10
   0.158133560781      13  11   1   1
  -0.107056805928E-01  13  11   2   1
   0.775662035575E-01  13  11   2   2
  -0.621810427786E-02  13  11   3   1
   0.122558949720E-01  13  11   3   2
   0.766299085384E-01  13  11   3   3
   0.464126401779E-02  13  11   4   1
  -0.946254002001E-02  13  11   4   2
  -0.276604552168E-01  13  11   4   3
   0.314950844853E-01  13  11   4   4
  -0.262614958015E-03  13  11   5   1
   0.240294085825E-01  13  11   5   2
  -0.430651129182E-01  13  11   5   3
   0.188093594355E-01  13  11   5   4
   0.542564645768E-01  13  11   5   5
   0.693857094373E-01  13  11   6   6
  -0.337514498947E-01  13  11   7   6
   0.249024967758E-01  13  11   7   7
   0.693857094373E-01  13  11   8   8
  -0.337514498947E-01  13  11   9   8
   0.249024967758E-01  13  11   9   9
   0.159064471966      13  11  10  10
   0.945979932584E-03  13  11  11  10
   0.718981043829E-01  13  11  11  11
  -0.867203871760E-03  13  11  12  10
  -0.264314396725E-01  13  11  12  11
   0.282919040454E-01  13  11  12  12
  -0.208578208135E-02  13  11  13  10
   0.461780722546E-01  13  11  13  11
  -0.102837003863      13  12   1   1
   0.627475668003E-02  13  12   2   1
  -0.558034486218E-01  13  12   2   2
   0.315321670925E-02  13  12   3   1
  -0.780125482485E-02  13  12   3   2
  -0.509102860859E-01  13  12   3   3
  -0.244238906268E-02  13  12   4   1
   0.511464979540E-02  13  12   4   2
   0.188258678524E-01  13  12   4   3
  -0.199301153168E-01  13  12   4   4
   0.603571840403E-03  13  12   5   1
  -0.136689318466E-01  13  12   5   2
   0.225644783420E-01  13  12   5   3
  -0.909127149872E-02  13  12   5   4
  -0.394727106540E-01  13  12   5   5
  -0.509265719334E-01  13  12   6   6
   0.193788015246E-01  13  12   7   6
  -0.247235578452E-01  13  12   7   7
  -0.509265719334E-01  13  12   8   8
   0.193788015246E-01  13  12   9   8
  -0.247235578452E-01  13  12   9   9
  -0.103373892046      13  12  10  10
  -0.991964893504E-03  13  12  11  10
  -0.486079833559E-01  13  12  11  11
   0.738742503098E-03  13  12  12  10
   0.191353999737E-01  13  12  12  11
  -0.113213271051E-01  13  12  12  12
   0.694354260406E-03  13  12  13  10
  -0.220494330793E-01  13  12  13  11
   0.167403931652E-01  13  12  13  12
   0.510310215681      13  13   1   1
  -0.112572877888E-01  13  13   2   1
   0.421104250143      13  13   2   2
  -0.532163881681E-02  13  13   3   1
   0.196739041141E-01  13  13   3   2
   0.398277720301      13  13   3   3
   0.426786055658E-02  13  13   4   1
  -0.717977091169E-02  13  13   4   2
  -0.517744518566E-01  13  13   4   3
   0.318415981790      13  13   4   4
  -0.138895455061E-02  13  13   5   1
   0.286094264430E-01  13  13   5   2
  -0.517756378702E-01  13  13   5   3
   0.110890885832E-01  13  13   5   4
   0.371527558168      13  13   5   5
   0.409693885606      13  13   6   6
  -0.434742478332E-01  13  13   7   6
   0.330887347085      13  13   7   7
   0.409693885606      13  13   8   8
  -0.434742478332E-01  13  13   9   8
   0.330887347085      13  13   9   9
   0.511215878342      13  13  10  10
   0.198461840937E-02  13  13  11  10
   0.393516155105      13  13  11  11
  -0.143628213245E-02  13  13  12  10
  -0.532077038173E-01  13  13  12  11
   0.289847311346      13  13  12  12
  -0.953439655995E-03  13  13  13  10
   0.473081707835E-01  13  13  13  11
  -0.361914243324E-01  13  13  13  12
   0.361351858179      13  13  13  13
  -0.186112669809E-01  14  10   1   1
   0.229277663254E-01  14  10   2   1
   0.323293709075E-01  14  10   2   2
   0.273533632885E-01  14  10   3   1
   0.208941861097E-01  14  10   3   2
  -0.153356671329E-02  14  10   3   3
  -0.215333132551E-01  14  10   4   1
  -0.114242383077E-01  14  10   4   2
  -0.546103148598E-02  14  10   4   3
   0.376071194934E-02  14  10   4   4
  -0.109931115962E-01  14  10   5   1
   0.315282290890E-03  14  10   5   2
   0.135532007899E-01  14  10   5   3
  -0.818041819623E-02  14  10   5   4
  -0.930064973119E-02  14  10   5   5
   0.134126228237E-01  14  10   6   6
  -0.592553711605E-02  14  10   7   6
   0.569764231451E-02  14  10   7   7
   0.134126228237E-01  14  10   8   8
  -0.592553711605E-02  14  10   9   8
   0.569764231451E-02  14  10   9   9
  -0.212116810957E-01  14  10  10  10
   0.871531096939E-02  14  10  11  10
  -0.129790308815E-01  14  10  11  11
  -0.503567060914E-02  14  10  12  10
   0.350147862774E-02  14  10  12  11
  -0.428624213831E-02  14  10  12  12
   0.187772884323E-01  14  10  13  10
  -0.113768033393E-01  14  10  13  11
   0.588866007075E-02  14  10  13  12
  -0.110643992272E-01  14  10  13  13
   0.514368197380E-01  14  10  14  10
   0.236328379124E-01  14  11   1   1
  -0.972690313303E-02  14  11   2   1
  -0.266675419660E-01  14  11   2   2
  -0.773140838983E-02  14  11   3   1
  -0.104121744655E-01  14  11   3   2
   0.185819456072E-01  14  11   3   3
   0.533916800749E-02  14  11   4   1
  -0.139248181764E-02  14  11   4   2
   0.271110336075E-02  14  11   4   3
   0.254947842817E-02  14  11   4   4
   0.133435820080E-02  14  11   5   1
   0.572781450255E-03  14  11   5   2
  -0.173375155194E-01  14  11   5   3
   0.119783237046E-01  14  11   5   4
   0.891324450235E-02  14  11   5   5
  -0.205864405772E-01  14  11   6   6
   0.410658577261E-02  14  11   7   6
  -0.667080661092E-02  14  11   7   7
  -0.205864405772E-01  14  11   8   8
   0.410658577261E-02  14  11   9   8
  -0.667080661092E-02  14  11   9   9
   0.244948733871E-01  14  11  10  10
  -0.899234247634E-03  14  11  11  10
   0.176151284376E-01  14  11  11  11
   0.972075230333E-04  14  11  12  10
   0.176346541250E-02  14  11  12  11
   0.615240400806E-02  14  11  12  12
  -0.384341859525E-02  14  11  13  10
   0.140978954480E-01  14  11  13  11
  -0.727879809541E-02  14  11  13  12
   0.129243082956E-01  14  11  13  13
  -0.139149441829E-01  14  11  14  10
   0.234092746703E-01  14  11  14  11
   0.285466453147E-01  14  12   1   1
   0.579947686980E-02  14  12   2   1
   0.532999424242E-01  14  12   2   2
   0.472349845699E-02  14  12   3   1
   0.100785653681E-01  14  12   3   2
   0.214204443373E-01  14  12   3   3
  -0.321162237462E-02  14  12   4   1
  -0.165413132437E-03  14  12   4   2
  -0.111470205885E-01  14  12   4   3
   0.119753568633E-01  14  12   4   4
  -0.810123332110E-03  14  12   5   1
   0.476335948800E-02  14  12   5   2
   0.143679642724E-02  14  12   5   3
  -0.734614369115E-02  14  12   5   4
   0.207871071165E-01  14  12   5   5
   0.471010289863E-01  14  12   6   6
  -0.995340347978E-02  14  12   7   6
   0.243110860591E-01  14  12   7   7
   0.471010289863E-01  14  12   8   8
  -0.995340347978E-02  14  12   9   8
   0.243110860591E-01  14  12   9   9
   0.280186988105E-01  14  12  10  10
   0.577331275371E-03  14  12  11  10
   0.209401912638E-01  14  12  11  11
  -0.792924156430E-04  14  12  12  10
  -0.116419794581E-01  14  12  12  11
   0.910366071638E-03  14  12  12  12
   0.232624418082E-02  14  12  13  10
  -0.158552157997E-02  14  12  13  11
  -0.363686804002E-02  14  12  13  12
   0.153938699031E-01  14  12  13  13
   0.826697601182E-02  14  12  14  10
  -0.119409725828E-01  14  12  14  11
   0.132758939328E-01  14  12  14  12
   0.156602228553      14  13   1   1
  -0.122555867910E-01  14  13   2   1
   0.686678659113E-01  14  13   2   2
  -0.446815682704E-02  14  13   3   1
   0.148705526898E-01  14  13   3   2
   0.654657861420E-01  14  13   3   3
   0.341032184434E-02  14  13   4   1
  -0.101872541422E-01  14  13   4   2
  -0.272267488056E-01  14  13   4   3
   0.287847058197E-01  14  13   4   4
  -0.285569891162E-02  14  13   5   1
   0.151267818974E-01  14  13   5   2
  -0.317966582260E-01  14  13   5   3
   0.123187201625E-01  14  13   5   4
   0.481835703693E-01  14  13   5   5
   0.572777701534E-01  14  13   6   6
  -0.238443039111E-01  14  13   7   6
   0.265858915789E-01  14  13   7   7
   0.572777701534E-01  14  13   8   8
  -0.238443039111E-01  14  13   9   8
   0.265858915789E-01  14  13   9   9
   0.157427635274      14  13  10  10
   0.335133436330E-02  14  13  11  10
   0.566277704768E-01  14  13  11  11
  -0.238250404735E-02  14  13  12  10
  -0.219950179468E-01  14  13  12  11
   0.183863794298E-01  14  13  12  12
   0.221121791952E-03  14  13  13  10
   0.326746350934E-01  14  13  13  11
  -0.181720539089E-01  14  13  13  12
   0.445541355188E-01  14  13  13  13
  -0.120058556091E-01  14  13  14  10
   0.158430653650E-01  14  13  14  11
  -0.261332611239E-02  14  13  14  12
   0.319929496882E-01  14  13  14  13
   0.940323218361      14  14   1   1
  -0.237537965559E-01  14  14   2   1
   0.698469618542      14  14   2   2
   0.659934950372E-02  14  14   3   1
   0.107412011701      14  14   3   2
   0.543524253905      14  14   3   3
  -0.295126529942E-02  14  14   4   1
  -0.521604176620E-01  14  14   4   2
  -0.129852225429      14  14   4   3
   0.398804193174      14  14   4   4
  -0.184256918785E-01  14  14   5   1
   0.767372071365E-01  14  14   5   2
  -0.932170436410E-01  14  14   5   3
   0.225030192986E-01  14  14   5   4
   0.467784346703      14  14   5   5
   0.618931108736      14  14   6   6
  -0.134278799543      14  14   7   6
   0.415900031119      14  14   7   7
   0.618931108736      14  14   8   8
  -0.134278799543      14  14   9   8
   0.415900031119      14  14   9   9
   0.941228486488      14  14  10  10
   0.195360521524E-01  14  14  11  10
   0.501748770888      14  14  11  11
  -0.119588586736E-01  14  14  12  10
  -0.105204313335      14  14  12  11
   0.333930197493      14  14  12  12
   0.148949044095E-01  14  14  13  10
   0.103638874076      14  14  13  11
  -0.682200503396E-01  14  14  13  12
   0.441082429046      14  14  13  13
  -0.660434958494E-02  14  14  14  10
   0.115140715877E-02  14  14  14  11
   0.366450099361E-01  14  14  14  12
   0.936845761563E-01  14  14  14  13
   0.715669329789      14  14  14  14
   0.440570799841      15  15   1   1
  -0.245494277359E-02  15  15   2   1
   0.406276248049      15  15   2   2
  -0.256563925199E-03  15  15   3   1
   0.158233698061E-01  15  15   3   2
   0.376421718077      15  15   3   3
   0.593650058770E-03  15  15   4   1
  -0.448274404321E-02  15  15   4   2
  -0.368975012163E-01  15  15   4   3
   0.312503135916      15  15   4   4
  -0.101809455269E-02  15  15   5   1
   0.230056133068E-01  15  15   5   2
  -0.333614035488E-01  15  15   5   3
   0.547700937399E-02  15  15   5   4
   0.348532782898      15  15   5   5
   0.410196223449      15  15   6   6
  -0.337602394663E-01  15  15   7   6
   0.333899368519      15  15   7   7
   0.384368708579      15  15   8   8
  -0.376075006466E-01  15  15   9   8
   0.308742507005      15  15   9   9
   0.440761137248      15  15  10  10
   0.112277163542E-02  15  15  11  10
   0.375399866785      15  15  11  11
  -0.619903492940E-03  15  15  12  10
  -0.414554848998E-01  15  15  12  11
   0.288382712757      15  15  12  12
   0.700788891350E-03  15  15  13  10
   0.276527581140E-01  15  15  13  11
  -0.273789075213E-01  15  15  13  12
   0.339569949521      15  15  13  13
  -0.103372289262E-02  15  15  14  10
  -0.101476364025E-02  15  15  14  11
   0.221801632595E-01  15  15  14  12
   0.260049005094E-01  15  15  14  13
   0.406105140711      15  15  14  14
   0.351457878201      15  15  15  15
   0.217916230092      16  15   1   1
  -0.507158488357E-02  16  15   2   1
   0.151274147163      16  15   2   2
   0.126143861367E-02  16  15   3   1
   0.303283861559E-01  16  15   3   2
   0.980596619582E-01  16  15   3   3
  -0.300323553842E-03  16  15   4   1
  -0.121062721631E-01  16  15   4   2
  -0.443795821804E-01  16  15   4   3
   0.485605499721E-01  16  15   4   4
  -0.370383387634E-02  16  15   5   1
   0.289194454509E-01  16  15   5   2
  -0.353202946288E-01  16  15   5   3
   0.717586721551E-02  16  15   5   4
   0.771945644591E-01  16  15   5   5
   0.139865095691      16  15   6   6
  -0.523647377467E-01  16  15   7   6
   0.571526109941E-01  16  15   7   7
   0.123999643363      16  15   8   8
  -0.432400443738E-01  16  15   9   8
   0.584802034786E-01  16  15   9   9
   0.218234728924      16  15  10  10
   0.398483211827E-02  16  15  11  10
   0.904768537807E-01  16  15  11  11
  -0.229347776787E-02  16  15  12  10
  -0.405848409441E-01  16  15  12  11
   0.311048376532E-01  16  15  12  12
   0.318206912480E-02  16  15  13  10
   0.396400221395E-01  16  15  13  11
  -0.227907858774E-01  16  15  13  12
   0.648750693579E-01  16  15  13  13
  -0.903587716976E-04  16  15  14  10
  -0.505655794730E-02  16  15  14  11
   0.143318884501E-01  16  15  14  12
   0.282112161911E-01  16  15  14  13
   0.154896286344      16  15  14  14
   0.549606280948E-01  16  15  15  15
   0.658651321101E-01  16  15  16  15
   0.744765603661      16  16   1   1
  -0.135315385211E-01  16  16   2   1
   0.579822051965      16  16   2   2
   0.387061560241E-02  16  16   3   1
   0.675525675238E-01  16  16   3   2
   0.469988281884      16  16   3   3
  -0.140320076543E-02  16  16   4   1
  -0.307037666942E-01  16  16   4   2
  -0.926711051033E-01  16  16   4   3
   0.358420836843      16  16   4   4
  -0.105846812127E-01  16  16   5   1
   0.608178604699E-01  16  16   5   2
  -0.710394361579E-01  16  16   5   3
   0.177392000800E-01  16  16   5   4
   0.419254478019      16  16   5   5
   0.554207796163      16  16   6   6
  -0.107564737339      16  16   7   6
   0.389775272432      16  16   7   7
   0.515966938992      16  16   8   8
  -0.968981277139E-01  16  16   9   8
   0.367249290055      16  16   9   9
   0.745583608652      16  16  10  10
   0.111248399622E-01  16  16  11  10
   0.450155781318      16  16  11  11
  -0.651630065513E-02  16  16  12  10
  -0.835777394263E-01  16  16  12  11
   0.313498560209      16  16  12  12
   0.922509679750E-02  16  16  13  10
   0.772756112273E-01  16  16  13  11
  -0.547306285166E-01  16  16  13  12
   0.397754240886      16  16  13  13
   0.438295393078E-03  16  16  14  10
  -0.559833122774E-02  16  16  14  11
   0.338298996693E-01  16  16  14  12
   0.616618900748E-01  16  16  14  13
   0.587737631785      16  16  14  14
   0.388780355572      16  16  15  15
   0.129100648915      16  16  16  15
   0.537621663765      16  16  16  16
   0.440570799841      17  17   1   1
  -0.245494277359E-02  17  17   2   1
   0.406276248049      17  17   2   2
  -0.256563925199E-03  17  17   3   1
   0.158233698061E-01  17  17   3   2
   0.376421718077      17  17   3   3
   0.593650058770E-03  17  17   4   1