 &FCI NORB= 13,NELEC= 5,MS2= 3,
  ORBSYM=1,1,1,1,2,2,3,3,4,5,5,6,7,
  ISYM=8
 &END
   0.545069682632       1   1   1   1
  -0.122220134653       2   1   1   1
   0.809924455058E-01   2   1   2   1
   0.469379596825       2   2   1   1
  -0.926055482390E-01   2   2   2   1
   0.421950337125       2   2   2   2
   0.451724251412E-15   3   1   1   1
  -0.121098710628E-15   3   1   2   1
   0.333168191452E-15   3   1   2   2
   0.530096021176E-01   3   1   3   1
   0.187943204273E-15   3   2   1   1
  -0.182245026584E-16   3   2   2   1
   0.168947064897E-15   3   2   2   2
  -0.615519683612E-02   3   2   3   1
   0.120581591202E-01   3   2   3   2
   0.528677298941       3   3   1   1
  -0.989701206139E-01   3   3   2   1
   0.450425177968       3   3   2   2
  -0.400829512978E-05   3   3   3   1
   0.312787942622E-06   3   3   3   2
   0.570338394840       3   3   3   3
   0.123624044675E-10   4   1   1   1
  -0.331590870041E-11   4   1   2   1
   0.912131494206E-11   4   1   2   2
  -0.684312267594E-16   4   1   3   1
   0.297085892872E-15   4   1   3   2
  -0.368024573415E-01   4   1   3   3
   0.530096021157E-01   4   1   4   1
   0.514031000459E-11   4   2   1   1
  -0.495959199117E-12   4   2   2   1
   0.462098794781E-11   4   2   2   2
   0.297086512053E-15   4   2   3   1
  -0.460373346016E-16   4   2   3   2
   0.287188557710E-02   4   2   3   3
  -0.615519682791E-02   4   2   4   1
   0.120581591189E-01   4   2   4   2
  -0.684383624867E-16   4   3   1   1
   0.297078738291E-15   4   3   2   1
  -0.458691993614E-16   4   3   2   2
  -0.368024573541E-01   4   3   3   1
   0.287188555684E-02   4   3   3   2
  -0.207732185911E-15   4   3   3   3
   0.400829513021E-05   4   3   4   1
  -0.312787942855E-06   4   3   4   2
   0.333735130584E-01   4   3   4   3
   0.528677298939       4   4   1   1
  -0.989701206056E-01   4   4   2   1
   0.450425177967       4   4   2   2
   0.400829513067E-05   4   4   3   1
  -0.312787942119E-06   4   4   3   2
   0.503591368717       4   4   3   3
   0.368024573659E-01   4   4   4   1
  -0.287188556333E-02   4   4   4   2
   0.322011433360E-15   4   4   4   3
   0.570338394843       4   4   4   4
   0.508316370094       5   5   1   1
  -0.103589990685       5   5   2   1
   0.443710082332       5   5   2   2
   0.358979950680E-01   5   5   3   1
  -0.375622484434E-02   5   5   3   2
   0.509159055040       5   5   3   3
  -0.207274548124E-01   5   5   4   1
   0.216883923383E-02   5   5   4   2
  -0.245273826460E-01   5   5   4   3
   0.480842021973       5   5   4   4
   0.512178506299       5   5   5   5
  -0.142148145539       6   5   1   1
   0.871215219489E-01   6   5   2   1
  -0.108028653400       6   5   2   2
  -0.953422938797E-02   6   5   3   1
   0.111737296839E-01   6   5   3   2
  -0.121893225825       6   5   3   3
   0.550505140342E-02   6   5   4   1
  -0.645169665404E-02   6   5   4   2
   0.536303088543E-02   6   5   4   3
  -0.115701569552       6   5   4   4
  -0.131063423968       6   5   5   5
   0.113353351065       6   5   6   5
   0.479122705205       6   6   1   1
  -0.109503270049       6   6   2   1
   0.431209907580       6   6   2   2
   0.246417948787E-01   6   6   3   1
  -0.449148159507E-02   6   6   3   2
   0.461086716222       6   6   3   3
  -0.142281397148E-01   6   6   4   1
   0.259337560217E-02   6   6   4   2
  -0.157691202211E-01   6   6   4   3
   0.442881157761       6   6   4   4
   0.479771044641       6   6   5   5
  -0.135665847254       6   6   6   5
   0.478633272684       6   6   6   6
   0.508316370094       7   7   1   1
  -0.103589990685       7   7   2   1
   0.443710082332       7   7   2   2
  -0.358994999771E-01   7   7   3   1
   0.375638231211E-02   7   7   3   2
   0.509162616718       7   7   3   3
  -0.207248482333E-01   7   7   4   1
   0.216856649166E-02   7   7   4   2
   0.245253263105E-01   7   7   4   3
   0.480838460296       7   7   4   4
   0.460525791109       7   7   5   5
  -0.118406250163       7   7   6   5
   0.438776967516       7   7   6   6
   0.512178506299       7   7   7   7
  -0.142148145539       8   7   1   1
   0.871215219489E-01   8   7   2   1
  -0.108028653400       8   7   2   2
   0.953462908017E-02   8   7   3   1
  -0.111741981069E-01   8   7   3   2
  -0.121894004603       8   7   3   3
   0.550435911621E-02   8   7   4   1
  -0.645088532154E-02   8   7   4   2
  -0.536258125772E-02   8   7   4   3
  -0.115700790774       8   7   4   4
  -0.118406250163       8   7   5   5
   0.881512874228E-01   8   7   6   5
  -0.123145159059       8   7   6   6
  -0.131063423968       8   7   7   7
   0.113353351065       8   7   8   7
   0.479122705205       8   8   1   1
  -0.109503270049       8   8   2   1
   0.431209907580       8   8   2   2
  -0.246428279075E-01   8   8   3   1
   0.449166988614E-02   8   8   3   2
   0.461089006093       8   8   3   3
  -0.142263504564E-01   8   8   4   1
   0.259304947248E-02   8   8   4   2
   0.157677981639E-01   8   8   4   3
   0.442878867891       8   8   4   4
   0.438776967516       8   8   5   5
  -0.123145159059       8   8   6   5
   0.435226367601       8   8   6   6
   0.479771044641       8   8   7   7
  -0.135665847254       8   8   8   7
   0.478633272684       8   8   8   8
   0.528677298941       9   9   1   1
  -0.989701206139E-01   9   9   2   1
   0.450425177968       9   9   2   2
  -0.133609837863E-05   9   9   3   1
   0.104262648215E-06   9   9   3   2
   0.535470545332       9   9   3   3
  -0.368024575356E-01   9   9   4   1
   0.287188559224E-02   9   9   4   2
  -0.115736065032E-05   9   9   4   3
   0.503591368759       9   9   4   4
   0.509160835916       9   9   5   5
  -0.121893615222       9   9   6   5
   0.461087861181       9   9   6   6
   0.509160835916       9   9   7   7
  -0.121893615222       9   9   8   7
   0.461087861181       9   9   8   8
   0.570338394840       9   9   9   9
   0.508316370092      10  10   1   1
  -0.103589990678      10  10   2   1
   0.443710082330      10  10   2   2
   0.150490914671E-05  10  10   3   1
  -0.157467767929E-06  10  10   3   2
   0.466679943763      10  10   3   3
   0.414523031030E-01  10  10   4   1
  -0.433740578920E-02  10  10   4   2
   0.205633554411E-05  10  10   4   3
   0.523321133253      10  10   4   4
   0.460525791109      10  10   5   5
  -0.118406250162      10  10   6   5
   0.438776967516      10  10   6   6
   0.460525791109      10  10   7   7
  -0.118406250162      10  10   8   7
   0.438776967516      10  10   8   8
   0.466679943689      10  10   9   9
   0.512178506299      10  10  10  10
  -0.142148145539      11  10   1   1
   0.871215219468E-01  11  10   2   1
  -0.108028653396      11  10   2   2
  -0.399692211069E-06  11  10   3   1
   0.468423041672E-06  11  10   3   2
  -0.112604962641      11  10   3   3
  -0.110094105796E-01  11  10   4   1
   0.129025821567E-01  11  10   4   2
  -0.449627714872E-06  11  10   4   3
  -0.124989832742      11  10   4   4
  -0.118406250163      11  10   5   5
   0.881512874228E-01  11  10   6   5
  -0.123145159059      11  10   6   6
  -0.118406250163      11  10   7   7
   0.881512874228E-01  11  10   8   7
  -0.123145159059      11  10   8   8
  -0.112604962624      11  10   9   9
  -0.131063423968      11  10  10  10
   0.113353351065      11  10  11  10
   0.479122705204      11  11   1   1
  -0.109503270045      11  11   2   1
   0.431209907578      11  11   2   2
   0.103302879340E-05  11  11   3   1
  -0.188291074079E-06  11  11   3   2
   0.433776088661      11  11   3   3
   0.284544902605E-01  11  11   4   1
  -0.518642516818E-02  11  11   4   2
   0.132205718290E-05  11  11   4   3
   0.470191785325      11  11   4   4
   0.438776967517      11  11   5   5
  -0.123145159059      11  11   6   5
   0.435226367601      11  11   6   6
   0.438776967517      11  11   7   7
  -0.123145159059      11  11   8   7
   0.435226367601      11  11   8   8
   0.433776088613      11  11   9   9
   0.479771044641      11  11  10  10
  -0.135665847254      11  11  11  10
   0.478633272684      11  11  11  11
   0.528677298940      12  12   1   1
  -0.989701206077E-01  12  12   2   1
   0.450425177967      12  12   2   2
   0.318725312052E-01  12  12   3   1
  -0.248717800901E-02  12  12   3   2
   0.511560160600      12  12   3   3
   0.184000716713E-01  12  12   4   1
  -0.143585245491E-02  12  12   4   2
  -0.138035096826E-01  12  12   4   3
   0.527501753493      12  12   4   4
   0.509160835916      12  12   5   5
  -0.121893615222      12  12   6   5
   0.461087861181      12  12   6   6
   0.466679943689      12  12   7   7
  -0.112604962624      12  12   8   7
   0.433776088613      12  12   8   8
   0.511561162882      12  12   9   9
   0.509160835916      12  12  10  10
  -0.121893615222      12  12  11  10
   0.461087861182      12  12  11  11
   0.570338394840      12  12  12  12
   0.528677298940      13  13   1   1
  -0.989701206077E-01  13  13   2   1
   0.450425177967      13  13   2   2
  -0.318711951068E-01  13  13   3   1
   0.248707374636E-02  13  13   3   2
   0.511562165207      13  13   3   3
   0.184023858616E-01  13  13   4   1
  -0.143603304311E-02  13  13   4   2
   0.138046670433E-01  13  13   4   3
   0.527499748886      13  13   4   4
   0.466679943689      13  13   5   5
  -0.112604962624      13  13   6   5
   0.433776088613      13  13   6   6
   0.509160835916      13  13   7   7
  -0.121893615222      13  13   8   7
   0.461087861181      13  13   8   8
   0.511561162882      13  13   9   9
   0.509160835916      13  13  10  10
  -0.121893615222      13  13  11  10
   0.461087861182      13  13  11  11
   0.511561162882      13  13  12  12
   0.570338394840      13  13  13  13
   0.104857767670       5   1   5   1
  -0.119941639985E-01   5   2   5   1
   0.337139001035E-01   5   2   5   2
   0.786123901311E-01   5   3   5   1
  -0.636646405725E-02   5   3   5   2
   0.780113895653E-01   5   3   5   3
  -0.453906900027E-01   5   4   5   1
   0.367598791411E-02   5   4   5   2
  -0.385640230738E-01   5   4   5   3
   0.334889579714E-01   5   4   5   4
  -0.357805916487E-01   6   1   5   1
   0.318029066973E-01   6   1   5   2
  -0.244254843898E-01   6   1   5   3
   0.141032423530E-01   6   1   5   4
   0.360162468779E-01   6   1   6   1
   0.813910636580E-01   6   2   5   1
  -0.665375293350E-02   6   2   5   2
   0.582276236076E-01   6   2   5   3
  -0.336205527970E-01   6   2   5   4
  -0.259817562350E-01   6   2   6   1
   0.734310032645E-01   6   2   6   2
  -0.229773270417E-01   6   3   5   1
   0.171254437719E-01   6   3   5   2
  -0.207011456030E-01   6   3   5   3
   0.102897662780E-01   6   3   5   4
   0.201779813939E-01   6   3   6   1
  -0.165440449707E-01   6   3   6   2
   0.166462915547E-01   6   3   6   3
   0.132670782089E-01   6   4   5   1
  -0.988820855936E-02   6   4   5   2
   0.102897662735E-01   6   4   5   3
  -0.882153918751E-02   6   4   5   4
  -0.116507397449E-01   6   4   6   1
   0.955250965564E-02   6   4   6   2
  -0.785093731266E-02   6   4   6   3
   0.758232998028E-02   6   4   6   4
   0.786140379699E-01   9   7   5   1
  -0.636659750831E-02   9   7   5   2
   0.443463632651E-01   9   7   5   3
  -0.385640166054E-01   9   7   5   4
  -0.244259963891E-01   9   7   6   1
   0.582288441690E-01   9   7   6   2
  -0.120607938301E-01   9   7   6   3
   0.102897728311E-01   9   7   6   4
   0.780141896092E-01   9   7   9   7
  -0.229778086796E-01   9   8   5   1
   0.171258027289E-01   9   8   5   2
  -0.120607938301E-01   9   8   5   3
   0.102897728356E-01   9   8   5   4
   0.201784043561E-01   9   8   6   1
  -0.165443917598E-01   9   8   6   2
   0.749894877303E-02   9   8   6   3
  -0.785088047998E-02   9   8   6   4
  -0.207018927189E-01   9   8   9   7
   0.166468615929E-01   9   8   9   8
   0.786140379697E-01  12  10   5   1
  -0.636659750616E-02  12  10   5   2
   0.555692110292E-01  12  10   5   3
  -0.191271037299E-01  12  10   5   4
  -0.244259963890E-01  12  10   6   1
   0.582288441685E-01  12  10   6   2
  -0.149412167188E-01  12  10   6   3
   0.530115231280E-02  12  10   6   4
   0.555699053943E-01  12  10   9   7
  -0.149414091651E-01  12  10   9   8
   0.780141896092E-01  12  10  12  10
  -0.229778086796E-01  12  11   5   1
   0.171258027283E-01  12  11   5   2
  -0.149412167188E-01  12  11   5   3
   0.530115231736E-02  12  11   5   4
   0.201784043560E-01  12  11   6   1
  -0.165443917593E-01  12  11   6   2
   0.105483497769E-01  12  11   6   3
  -0.256960580944E-02  12  11   6   4
  -0.149414091652E-01  12  11   9   7
   0.105484430584E-01  12  11   9   8
  -0.207018927190E-01  12  11  12  10
   0.166468615930E-01  12  11  12  11
   0.104857767670       7   1   7   1
  -0.119941639985E-01   7   2   7   1
   0.337139001035E-01   7   2   7   2
  -0.786156857052E-01   7   3   7   1
   0.636673095098E-02   7   3   7   2
   0.780169895358E-01   7   3   7   3
  -0.453849819008E-01   7   4   7   1
   0.367552564060E-02   7   4   7   2
   0.385607899293E-01   7   4   7   3
   0.334833580009E-01   7   4   7   4
  -0.357805916487E-01   8   1   7   1
   0.318029066973E-01   8   1   7   2
   0.244265083505E-01   8   1   7   3
   0.141014688011E-01   8   1   7   4
   0.360162468779E-01   8   1   8   1
   0.813910636580E-01   8   2   7   1
  -0.665375293350E-02   8   2   7   2
  -0.582300646154E-01   8   2   7   3
  -0.336163248476E-01   8   2   7   4
  -0.259817562350E-01   8   2   8   1
   0.734310032645E-01   8   2   8   2
   0.229782902930E-01   8   3   7   1
  -0.171261617016E-01   8   3   7   2
  -0.207026398036E-01   8   3   7   3
  -0.102889036009E-01   8   3   7   4
  -0.201788272916E-01   8   3   8   1
   0.165447385271E-01   8   3   8   2
   0.166474316073E-01   8   3   8   3
   0.132654098087E-01   8   4   7   1
  -0.988696506864E-02   8   4   7   2
  -0.102889035964E-01   8   4   7   3
  -0.882004498688E-02   8   4   7   4
  -0.116492746072E-01   8   4   8   1
   0.955130838070E-02   8   4   8   2
   0.785027910294E-02   8   4   8   3
   0.758118992762E-02   8   4   8   4
   0.786140379699E-01   9   5   7   1
  -0.636659750729E-02   9   5   7   2
  -0.443491632503E-01   9   5   7   3
  -0.385607965486E-01   9   5   7   4
  -0.244259963894E-01   9   5   8   1
   0.582288441776E-01   9   5   8   2
   0.120615409305E-01   9   5   8   3
   0.102888970816E-01   9   5   8   4
   0.780141896092E-01   9   5   9   5
  -0.229778086803E-01   9   6   7   1
   0.171258027319E-01   9   6   7   2
   0.120615409305E-01   9   6   7   3
   0.102888970862E-01   9   6   7   4
   0.201784043502E-01   9   6   8   1
  -0.165443917348E-01   9   6   8   2
  -0.749951879936E-02   9   6   8   3
  -0.785033597694E-02   9   6   8   4
  -0.207018927189E-01   9   6   9   5
   0.166468615929E-01   9   6   9   6
   0.786140379697E-01  13  10   7   1
  -0.636659750616E-02  13  10   7   2
  -0.555705996863E-01  13  10   7   3
  -0.191230688439E-01  13  10   7   4
  -0.244259963890E-01  13  10   8   1
   0.582288441685E-01  13  10   8   2
   0.149416015918E-01  13  10   8   3
   0.530006742913E-02  13  10   8   4
   0.555699053943E-01  13  10   9   5
  -0.149414091651E-01  13  10   9   6
   0.780141896092E-01  13  10  13  10
  -0.229778086796E-01  13  11   7   1
   0.171258027283E-01  13  11   7   2
   0.149416015918E-01  13  11   7   3
   0.530006743370E-02  13  11   7   4
   0.201784043560E-01  13  11   8   1
  -0.165443917593E-01  13  11   8   2
  -0.105485363261E-01  13  11   8   3
  -0.256883989550E-02  13  11   8   4
  -0.149414091652E-01  13  11   9   5
   0.105484430584E-01  13  11   9   6
  -0.207018927190E-01  13  11  13  10
   0.166468615930E-01  13  11  13  11
   0.258263575830E-01   7   5   7   5
  -0.632858690566E-02   7   6   7   5
   0.126010318100E-01   7   6   7   6
  -0.632858690566E-02   8   5   7   5
   0.126010318567E-01   8   5   7   6
   0.126010318100E-01   8   5   8   5
   0.204970385751E-01   8   6   7   5
  -0.626034411286E-02   8   6   7   6
  -0.626034411286E-02   8   6   8   5
   0.217034523769E-01   8   6   8   6
   0.358987475481E-01   9   1   7   5
  -0.953442924024E-02   9   1   7   6
  -0.953442923992E-02   9   1   8   5
   0.246423114466E-01   9   1   8   6
   0.530096021176E-01   9   1   9   1
  -0.375630359170E-02   9   2   7   5
   0.111739638988E-01   9   2   7   6
   0.111739639045E-01   9   2   8   5
  -0.449157583939E-02   9   2   8   6
  -0.615519683612E-02   9   2   9   1
   0.120581591202E-01   9   2   9   2
  -0.890419410401E-06   9   3   7   5
   0.194694512071E-06   9   3   7   6
   0.194694512071E-06   9   3   8   5
  -0.572467554168E-06   9   3   8   6
  -0.133609837909E-05   9   3   9   1
   0.104262647478E-06   9   3   9   2
   0.174339247410E-01   9   3   9   3
  -0.245263545440E-01   9   4   7   5
   0.536280608334E-02   9   4   7   6
   0.536280608334E-02   9   4   8   5
  -0.157684592614E-01   9   4   8   6
  -0.368024575481E-01   9   4   9   1
   0.287188557198E-02   9   4   9   2
   0.578680325531E-06   9   4   9   3
   0.333735130374E-01   9   4   9   4
   0.212404461078E-01  13  12   7   5
  -0.464432632021E-02  13  12   7   6
  -0.464432632021E-02  13  12   8   5
   0.136558863516E-01  13  12   8   6
   0.318718631807E-01  13  12   9   1
  -0.248712585749E-02  13  12   9   2
  -0.501151861908E-06  13  12   9   3
  -0.138040883902E-01  13  12   9   4
   0.293886159600E-01  13  12  13  12
   0.104857767666      10   1  10   1
  -0.119941639832E-01  10   2  10   1
   0.337139001011E-01  10   2  10   2
   0.329557415942E-05  10   3  10   1
  -0.266893734733E-06  10   3  10   2
   0.112221422170E-01  10   3  10   3
   0.907756719090E-01  10   4  10   1
  -0.735151355324E-02  10   4  10   2
   0.323314445984E-05  10   4  10   3
   0.100278205330      10   4  10   4
  -0.357805916477E-01  11   1  10   1
   0.318029066923E-01  11   1  10   2
  -0.102396066405E-05  11   1  10   3
  -0.282047111646E-01  11   1  10   4
   0.360162468771E-01  11   1  11   1
   0.813910636523E-01  11   2  10   1
  -0.665375291906E-02  11   2  10   2
   0.244100772729E-05  11   2  10   3
   0.672368776610E-01  11   2  10   4
  -0.259817562309E-01  11   2  11   1
   0.734310032582E-01  11   2  11   2
  -0.963251278125E-06  11   3  10   1
   0.717929703070E-06  11   3  10   2
  -0.288024180665E-02  11   3  10   3
  -0.862677132757E-06  11   3  10   4
   0.845897624658E-06  11   3  11   1
  -0.693556410071E-06  11   3  11   2
   0.304920924466E-02  11   3  11   3
  -0.265324880458E-01  11   4  10   1
   0.197751736199E-01  11   4  10   2
  -0.862677132755E-06  11   4  10   3
  -0.266424430120E-01  11   4  10   4
   0.233000143617E-01  11   4  11   1
  -0.191038180558E-01  11   4  11   2
   0.658209712782E-06  11   4  11   3
   0.211794123491E-01  11   4  11   4
   0.786140379687E-01  12   5  10   1
  -0.636659749663E-02  12   5  10   2
   0.112242364167E-01  12   5  10   3
   0.576870854583E-01  12   5  10   4
  -0.244259963891E-01  12   5  11   1
   0.582288441748E-01  12   5  11   2
  -0.288080775302E-02  12   5  11   3
  -0.155898402724E-01  12   5  11   4
   0.780141896092E-01  12   5  12   5
  -0.229778086800E-01  12   6  10   1
   0.171258027290E-01  12   6  10   2
  -0.288080775302E-02  12   6  10   3
  -0.155898402678E-01  12   6  10   4
   0.201784043499E-01  12   6  11   1
  -0.165443917328E-01  12   6  11   2
   0.304958751393E-02  12   6  11   3
   0.104197203822E-01  12   6  11   4
  -0.207018927189E-01  12   6  12   5
   0.166468615929E-01  12   6  12   6
   0.786140379687E-01  13   7  10   1
  -0.636659749663E-02  13   7  10   2
  -0.112200477744E-01  13   7  10   3
   0.576879002889E-01  13   7  10   4
  -0.244259963891E-01  13   7  11   1
   0.582288441748E-01  13   7  11   2
   0.287967577970E-02  13   7  11   3
  -0.155900494044E-01  13   7  11   4
   0.555699053943E-01  13   7  12   5
  -0.149414091651E-01  13   7  12   6
   0.780141896092E-01  13   7  13   7
  -0.229778086800E-01  13   8  10   1
   0.171258027290E-01  13   8  10   2
   0.287967577970E-02  13   8  10   3
  -0.155900493998E-01  13   8  10   4
   0.201784043499E-01  13   8  11   1
  -0.165443917328E-01  13   8  11   2
  -0.304883093840E-02  13   8  11   3
   0.104199417829E-01  13   8  11   4
  -0.149414091651E-01  13   8  12   5
   0.105484430584E-01  13   8  12   6
  -0.207018927189E-01  13   8  13   7
   0.166468615929E-01  13   8  13   8
   0.258263575830E-01  10   5  10   5
  -0.632858690565E-02  10   6  10   5
   0.126010318100E-01  10   6  10   6
  -0.632858690567E-02  11   5  10   5
   0.126010318567E-01  11   5  10   6
   0.126010318101E-01  11   5  11   5
   0.204970385751E-01  11   6  10   5
  -0.626034411286E-02  11   6  10   6
  -0.626034411288E-02  11   6  11   5
   0.217034523769E-01  11   6  11   6
   0.358987475477E-01  12   1  10   5
  -0.953442924013E-02  12   1  10   6
  -0.953442923983E-02  12   1  11   5
   0.246423114463E-01  12   1  11   6
   0.530096021162E-01  12   1  12   1
  -0.375630358763E-02  12   2  10   5
   0.111739638979E-01  12   2  10   6
   0.111739639036E-01  12   2  11   5
  -0.449157583678E-02  12   2  11   6
  -0.615519682996E-02  12   2  12   1
   0.120581591192E-01  12   2  12   2
   0.212408913041E-01  12   3  10   5
  -0.464442365668E-02  12   3  10   6
  -0.464442365670E-02  12   3  11   5
   0.136561725450E-01  12   3  11   6
   0.318725312086E-01  12   3  12   1
  -0.248717798488E-02  12   3  12   2
   0.293891171014E-01  12   3  12   3
   0.122624061410E-01  12   4  10   5
  -0.268123442351E-02  12   4  10   6
  -0.268123442352E-02  12   4  11   5
   0.788373384493E-02  12   4  11   6
   0.184000716712E-01  12   4  12   1
  -0.143585246606E-02  12   4  12   2
   0.690175484233E-02  12   4  12   3
   0.214183206594E-01  12   4  12   4
   0.212404461084E-01  13   9  10   5
  -0.464432631249E-02  13   9  10   6
  -0.464432631250E-02  13   9  11   5
   0.136558863202E-01  13   9  11   6
   0.318718631803E-01  13   9  12   1
  -0.248712585840E-02  13   9  12   2
   0.119549418081E-01  13   9  12   3
   0.690161018589E-02  13   9  12   4
   0.293886159600E-01  13   9  13   9
   0.258263575830E-01  10   7  10   7
  -0.632858690565E-02  10   8  10   7
   0.126010318100E-01  10   8  10   8
  -0.632858690567E-02  11   7  10   7
   0.126010318567E-01  11   7  10   8
   0.126010318101E-01  11   7  11   7
   0.204970385751E-01  11   8  10   7
  -0.626034411286E-02  11   8  10   8
  -0.626034411288E-02  11   8  11   7
   0.217034523769E-01  11   8  11   8
   0.212404461084E-01  12   9  10   7
  -0.464432631249E-02  12   9  10   8
  -0.464432631250E-02  12   9  11   7
   0.136558863202E-01  12   9  11   8
   0.293886159600E-01  12   9  12   9
   0.358987475477E-01  13   1  10   7
  -0.953442924013E-02  13   1  10   8
  -0.953442923983E-02  13   1  11   7
   0.246423114463E-01  13   1  11   8
   0.318718631803E-01  13   1  12   9
   0.530096021162E-01  13   1  13   1
  -0.375630358763E-02  13   2  10   7
   0.111739638979E-01  13   2  10   8
   0.111739639036E-01  13   2  11   7
  -0.449157583678E-02  13   2  11   8
  -0.248712585840E-02  13   2  12   9
  -0.615519682996E-02  13   2  13   1
   0.120581591192E-01  13   2  13   2
  -0.212400008847E-01  13   3  10   7
   0.464422896217E-02  13   3  10   8
   0.464422896219E-02  13   3  11   7
  -0.136556000774E-01  13   3  11   8
  -0.119544406562E-01  13   3  12   9
  -0.318711951103E-01  13   3  13   1
   0.248707372224E-02  13   3  13   2
   0.293881147976E-01  13   3  13   3
   0.122639483927E-01  13   4  10   7
  -0.268157164430E-02  13   4  10   8
  -0.268157164430E-02  13   4  11   7
   0.788472538782E-02  13   4  11   8
   0.690247820638E-02  13   4  12   9
   0.184023858615E-01  13   4  13   1
  -0.143603305426E-02  13   4  13   2
  -0.690233352265E-02  13   4  13   3
   0.214193229632E-01  13   4  13   4
   0.112221420997E-01  10   9  10   9
  -0.288024177533E-02  11   9  10   9
   0.304920922077E-02  11   9  11   9
   0.112221421029E-01  12   7  10   9
  -0.288024176826E-02  12   7  11   9
   0.112221420997E-01  12   7  12   7
  -0.288024176825E-02  12   8  10   9
   0.304920922818E-02  12   8  11   9
  -0.288024177533E-02  12   8  12   7
   0.304920922077E-02  12   8  12   8
   0.112221421029E-01  13   5  10   9
  -0.288024176826E-02  13   5  11   9
   0.112221421001E-01  13   5  12   7
  -0.288024177168E-02  13   5  12   8
   0.112221420997E-01  13   5  13   5
  -0.288024176825E-02  13   6  10   9
   0.304920922818E-02  13   6  11   9
  -0.288024177168E-02  13   6  12   7
   0.304920925145E-02  13   6  12   8
  -0.288024177533E-02  13   6  13   5
   0.304920922077E-02  13   6  13   6
   -2.22936392455       1   1   0   0
   0.414998860712       2   1   0   0
   -1.01913747313       2   2   0   0
  -0.243665853941E-14   3   1   0   0
   0.188389649342E-14   3   2   0   0
  -0.600626264572       3   3   0   0
  -0.667686093909E-10   4   1   0   0
   0.515882204297E-10   4   2   0   0
   0.123666810299E-18   4   3   0   0
  -0.600626264572       4   4   0   0
   -1.81513058425       5   5   0   0
   0.472671025942       6   5   0   0
   -1.13823463750       6   6   0   0
   -1.81513058425       7   7   0   0
   0.472671025942       8   7   0   0
   -1.13823463750       8   8   0   0
  -0.600626264572       9   9   0   0
   -1.81513058425      10  10   0   0
   0.472671025942      11  10   0   0
   -1.13823463750      11  11   0   0
  -0.600626264572      12  12   0   0
  -0.600626264572      13  13   0   0
   -32.3590670578      0  0  0  0
