 &FCI NORB= 13,NELEC= 5,MS2= 3,
  ORBSYM=1,1,1,1,1,1,1,1,1,1,1,1,1,
  ISYM=1
 &END
   0.545069682631       1   1   1   1
   0.297271635352E-16   2   1   1   1
   0.104857767670       2   1   2   1
   0.508316370094       2   2   1   1
  -0.426034350098E-16   2   2   2   1
   0.512178506290       2   2   2   2
  -0.296578339483E-16   3   1   1   1
   0.160762334161E-16   3   1   2   1
  -0.107324815691E-17   3   1   2   2
   0.104857767670       3   1   3   1
   0.295110577938E-16   3   2   1   1
   0.108238269215E-16   3   2   2   1
  -0.426280430214E-11   3   2   2   2
   0.412801935835E-17   3   2   3   1
   0.258263575935E-01   3   2   3   2
   0.508316370094       3   3   1   1
   0.104143347528E-16   3   3   2   1
   0.460525791122       3   3   2   2
   0.884200431142E-17   3   3   3   1
   0.426286089761E-11   3   3   3   2
   0.512178506290       3   3   3   3
   0.269217863295E-16   4   1   1   1
   0.197215357441E-14   4   1   2   1
  -0.185010021984E-16   4   1   2   2
  -0.134775755668E-14   4   1   3   1
   0.461786759429E-17   4   1   3   2
  -0.118219968187E-17   4   1   3   3
   0.104857767667       4   1   4   1
   0.957305030934E-15   4   2   1   1
  -0.209494913811E-16   4   2   2   1
   0.974308372019E-14   4   2   2   2
   0.305983249211E-17   4   2   3   1
  -0.668746233791E-14   4   2   3   2
   0.453909477657E-14   4   2   3   3
  -0.179310045113E-16   4   2   4   1
   0.258263575825E-01   4   2   4   2
  -0.552592941966E-15   4   3   1   1
   0.273934955002E-17   4   3   2   1
  -0.663149356937E-14   4   3   2   2
  -0.791613016167E-17   4   3   3   1
   0.448856311277E-14   4   3   3   2
  -0.313999983987E-14   4   3   3   3
   0.531173418998E-17   4   3   4   1
  -0.114464465534E-16   4   3   4   2
   0.258263575825E-01   4   3   4   3
   0.508316370093       4   4   1   1
  -0.109266075951E-16   4   4   2   1
   0.460525791111       4   4   2   2
  -0.570254933403E-17   4   4   3   1
   0.373585039439E-17   4   4   3   2
   0.460525791111       4   4   3   3
  -0.281659177917E-16   4   4   4   1
  -0.141106439413E-13   4   4   4   2
   0.996156146937E-14   4   4   4   3
   0.512178506301       4   4   4   4
  -0.135455359198E-15   5   1   1   1
  -0.510141335654E-04   5   1   2   1
  -0.104042982780E-15   5   1   2   2
  -0.806343701783E-04   5   1   3   1
   0.268704681775E-16   5   1   3   2
  -0.106078491168E-15   5   1   3   3
  -0.357804644219E-01   5   1   4   1
   0.111396181994E-16   5   1   4   2
   0.731467144515E-17   5   1   4   3
  -0.934542683882E-16   5   1   4   4
   0.360162468746E-01   5   1   5   1
  -0.202667539819E-03   5   2   1   1
  -0.141631935035E-16   5   2   2   1
  -0.186863511980E-03   5   2   2   2
   0.611396198201E-16   5   2   3   1
  -0.142619670539E-04   5   2   3   2
  -0.168817562319E-03   5   2   3   3
   0.154421559832E-16   5   2   4   1
  -0.632856440514E-02   5   2   4   2
  -0.107148708298E-16   5   2   4   3
  -0.168817562337E-03   5   2   4   4
  -0.865858539506E-17   5   2   5   1
   0.126012366246E-01   5   2   5   2
  -0.320341997148E-03   5   3   1   1
   0.612398873405E-16   5   3   2   1
  -0.266837773421E-03   5   3   2   2
  -0.104998539237E-16   5   3   3   1
  -0.902297481657E-05   5   3   3   2
  -0.295361707529E-03   5   3   3   3
   0.199621393329E-16   5   3   4   1
  -0.831640770416E-17   5   3   4   2
  -0.632856440514E-02   5   3   4   3
  -0.266837773422E-03   5   3   4   4
  -0.680187383427E-17   5   3   5   1
   0.323720893186E-06   5   3   5   2
   0.126015435017E-01   5   3   5   3
  -0.142147640103       5   4   1   1
   0.157367837063E-16   5   4   2   1
  -0.118405829147       5   4   2   2
   0.209259534034E-16   5   4   3   1
  -0.427029344253E-16   5   4   3   2
  -0.118405829147       5   4   3   3
   0.409357578048E-17   5   4   4   1
  -0.902297483409E-05   5   4   4   2
  -0.142619670548E-04   5   4   4   3
  -0.131062957947       5   4   4   4
   0.108912753027E-15   5   4   5   1
   0.143646981805E-03   5   4   5   2
   0.227052447915E-03   5   4   5   3
   0.113352634577       5   4   5   4
   0.479122705202       5   5   1   1
  -0.102810437674E-16   5   5   2   1
   0.438777050848       5   5   2   2
  -0.162908003326E-16   5   5   3   1
   0.131715471766E-06   5   5   3   2
   0.438777175710       5   5   3   3
   0.132594223636E-15   5   5   4   1
   0.584470461358E-04   5   5   4   2
   0.923830402239E-04   5   5   4   3
   0.479770753117       5   5   4   4
  -0.151160423922E-15   5   5   5   1
  -0.193425411126E-03   5   5   5   2
  -0.305733629384E-03   5   5   5   3
  -0.135665364867       5   5   5   4
   0.478633272682       5   5   5   5
   0.110506860995E-15   6   1   1   1
  -0.211663475852E-01   6   1   2   1
   0.101499381904E-15   6   1   2   2
  -0.288483519006E-01   6   1   3   1
  -0.942410471976E-16   6   1   3   2
   0.993479008077E-16   6   1   3   3
   0.951902560189E-04   6   1   4   1
   0.313315660837E-16   6   1   4   2
  -0.145588072091E-17   6   1   4   3
   0.836557195621E-16   6   1   4   4
   0.230033201608E-14   6   1   5   1
  -0.536222714933E-17   6   1   5   2
   0.131806141427E-16   6   1   5   3
  -0.830395620960E-16   6   1   5   4
   0.102175664519E-15   6   1   5   5
   0.360162468755E-01   6   1   6   1
  -0.840890806581E-01   6   2   1   1
   0.178346758183E-16   6   2   2   1
  -0.775318087212E-01   6   2   2   2
  -0.202400180320E-15   6   2   3   1
  -0.510246738938E-02   6   2   3   2
  -0.700443377724E-01   6   2   3   3
   0.637820841420E-16   6   2   4   1
   0.168364965546E-04   6   2   4   2
  -0.167925975859E-15   6   2   4   3
  -0.700443377764E-01   6   2   4   4
   0.264452477138E-16   6   2   5   1
   0.849760335509E-04   6   2   5   2
   0.132001879522E-03   6   2   5   3
   0.521464950469E-01   6   2   5   4
  -0.728476841779E-01   6   2   5   5
   0.445309777900E-17   6   2   6   1
   0.478585602124E-01   6   2   6   2
  -0.114607935075       6   3   1   1
  -0.202713900237E-15   6   3   2   1
  -0.954658661175E-01   6   3   2   2
   0.344439844701E-16   6   3   3   1
  -0.374373546943E-02   6   3   3   2
  -0.105670800898       6   3   3   3
  -0.734857054365E-17   6   3   4   1
  -0.173012408707E-15   6   3   4   2
   0.168364965545E-04   6   3   4   3
  -0.954658661199E-01   6   3   4   4
   0.691523063781E-16   6   3   5   1
   0.118130416268E-03   6   3   5   2
   0.183063272696E-03   6   3   5   3
   0.710722628553E-01   6   3   5   4
  -0.992866445119E-01   6   3   5   5
  -0.397628265579E-16   6   3   6   1
   0.480537127208E-01   6   3   6   2
   0.780951095810E-01   6   3   6   3
   0.378169218106E-03   6   4   1   1
   0.647875693218E-16   6   4   2   1
   0.315006564971E-03   6   4   2   2
  -0.525183347288E-17   6   4   3   1
  -0.146643426026E-15   6   4   3   2
   0.315006564971E-03   6   4   3   3
  -0.129855123665E-16   6   4   4   1
  -0.374373547338E-02   6   4   4   2
  -0.510246739189E-02   6   4   4   3
   0.348679558053E-03   6   4   4   4
  -0.246288047500E-16   6   4   5   1
   0.745389876939E-02   6   4   5   2
   0.101591053063E-01   6   4   5   3
  -0.268039306247E-03   6   4   5   4
   0.327613901326E-03   6   4   5   5
  -0.163438029060E-16   6   4   6   1
  -0.158561751939E-03   6   4   6   2
  -0.216109331074E-03   6   4   6   3
   0.126017449105E-01   6   4   6   4
   0.254768498066E-14   6   5   1   1
   0.103598191966E-16   6   5   2   1
   0.345750261551E-04   6   5   2   2
   0.502109886955E-16   6   5   3   1
   0.508868813233E-04   6   5   3   2
   0.744847361903E-04   6   5   3   3
  -0.741896622672E-16   6   5   4   1
   0.121250962716E-01   6   5   4   2
   0.165256988447E-01   6   5   4   3
  -0.109059762346E-03   6   5   4   4
   0.292332491959E-16   6   5   5   1
  -0.370336578427E-02   6   5   5   2
  -0.504744613737E-02   6   5   5   3
   0.166549442437E-04   6   5   5   4
  -0.168287316049E-11   6   5   5   5
   0.816230965437E-17   6   5   6   1
  -0.892567775139E-05   6   5   6   2
  -0.141081765646E-04   6   5   6   3
  -0.626032182243E-02   6   5   6   4
   0.217034522272E-01   6   5   6   5
   0.479122705203       6   6   1   1
   0.558680914633E-17   6   6   2   1
   0.453122541385       6   6   2   2
  -0.633992810618E-16   6   6   3   1
   0.195520819784E-01   6   6   3   2
   0.465425180630       6   6   3   3
  -0.235056870647E-16   6   6   4   1
  -0.645155638796E-04   6   6   4   2
  -0.879305077256E-04   6   6   4   3
   0.438777257659       6   6   4   4
  -0.778808920040E-16   6   6   5   1
  -0.175574055776E-03   6   6   5   2
  -0.277517276442E-03   6   6   5   3
  -0.123144721191       6   6   5   4
   0.435226367599       6   6   5   5
  -0.314727583680E-17   6   6   6   1
  -0.802544157635E-01   6   6   6   2
  -0.109381536812       6   6   6   3
   0.360923789568E-03   6   6   6   4
   0.166821699683E-11   6   6   6   5
   0.478633272681       6   6   6   6
  -0.473791486580E-16   7   1   1   1
   0.288484638434E-01   7   1   2   1
  -0.373913381780E-16   7   1   2   2
  -0.211664080415E-01   7   1   3   1
   0.501651663257E-17   7   1   3   2
  -0.577050399289E-16   7   1   3   3
   0.656952327307E-05   7   1   4   1
  -0.146774994639E-17   7   1   4   2
  -0.451418176377E-17   7   1   4   3
  -0.653199967828E-16   7   1   4   4
  -0.450201884025E-15   7   1   5   1
  -0.354108315495E-16   7   1   5   2
   0.342202444732E-16   7   1   5   3
   0.502170532219E-16   7   1   5   4
  -0.645562522336E-16   7   1   5   5
   0.301468133800E-16   7   1   6   1
   0.861109549954E-16   7   1   6   2
  -0.339457083898E-16   7   1   6   3
   0.178930283886E-16   7   1   6   4
  -0.201103128898E-16   7   1   6   5
  -0.159648500909E-16   7   1   6   6
   0.360162468755E-01   7   1   7   1
   0.114608379798       7   2   1   1
   0.395391192955E-16   7   2   2   1
   0.105671210942       7   2   2   2
   0.482712195681E-17   7   2   3   1
  -0.374374616247E-02   7   2   3   2
   0.954662365621E-01   7   2   3   3
   0.455914372273E-17   7   2   4   1
   0.116196510150E-05   7   2   4   2
   0.323650357410E-14   7   2   4   3
   0.954662365645E-01   7   2   4   4
  -0.762561907348E-16   7   2   5   1
  -0.115817243483E-03   7   2   5   2
  -0.149540349411E-03   7   2   5   3
  -0.710726174904E-01   7   2   5   4
   0.992870297826E-01   7   2   5   5
   0.806391730230E-16   7   2   6   1
  -0.480538992004E-01   7   2   6   2
  -0.528933448786E-01   7   2   6   3
   0.187712755867E-03   7   2   6   4
  -0.120284099521E-14   7   2   6   5
   0.992870297820E-01   7   2   6   6
  -0.410916035473E-16   7   2   7   1
   0.780956178668E-01   7   2   7   2
  -0.840893208374E-01   7   3   1   1
   0.612999307249E-17   7   3   2   1
  -0.700445378364E-01   7   3   2   2
  -0.190203223456E-16   7   3   3   1
   0.510248718893E-02   7   3   3   2
  -0.775320301712E-01   7   3   3   3
  -0.134951219552E-16   7   3   4   1
   0.318877326752E-14   7   3   4   2
   0.116196510392E-05   7   3   4   3
  -0.700445378403E-01   7   3   4   4
   0.621732816471E-16   7   3   5   1
   0.514526425781E-04   7   3   5   2
   0.134315885421E-03   7   3   5   3
   0.521466865727E-01   7   3   5   4
  -0.728478922489E-01   7   3   5   5
  -0.492870066483E-16   7   3   6   1
   0.226566420601E-01   7   3   6   2
   0.480538499867E-01   7   3   6   3
  -0.140596299510E-03   7   3   6   4
  -0.238261558920E-14   7   3   6   5
  -0.728478922497E-01   7   3   6   6
   0.462851186390E-16   7   3   7   1
  -0.480540364417E-01   7   3   7   2
   0.478587616211E-01   7   3   7   3
   0.260992204787E-04   7   4   1   1
   0.418701787835E-17   7   4   2   1
   0.217400713647E-04   7   4   2   2
  -0.125631979446E-16   7   4   3   1
   0.320738229020E-14   7   4   3   2
   0.217400713672E-04   7   4   3   3
  -0.353878971040E-16   7   4   4   1
   0.510248719144E-02   7   4   4   2
  -0.374374616642E-02   7   4   4   3
   0.240640015867E-04   7   4   4   4
   0.294799456292E-16   7   4   5   1
  -0.101596963071E-01   7   4   5   2
   0.745421794795E-02   7   4   5   3
  -0.184986419382E-04   7   4   5   4
   0.226101623962E-04   7   4   5   5
   0.891055612607E-17   7   4   6   1
   0.174543282006E-04   7   4   6   2
  -0.328806175960E-04   7   4   6   3
   0.492137396976E-07   7   4   6   4
   0.264884077091E-16   7   4   6   5
   0.226101624114E-04   7   4   6   6
   0.331083789653E-17   7   4   7   1
   0.149147701338E-04   7   4   7   2
  -0.109431168409E-04   7   4   7   3
   0.126010352159E-01   7   4   7   4
  -0.556346349608E-15   7   5   1   1
  -0.703817026212E-16   7   5   2   1
  -0.471236895330E-04   7   5   2   2
   0.613025254910E-16   7   5   3   1
  -0.199549501655E-04   7   5   3   2
   0.546504120951E-04   7   5   3   3
   0.628141408801E-16   7   5   4   1
  -0.165258912247E-01   7   5   4   2
   0.121252001692E-01   7   5   4   3
  -0.752672256211E-05   7   5   4   4
  -0.259297883939E-16   7   5   5   1
   0.504746572342E-02   7   5   5   2
  -0.370337636200E-02   7   5   5   3
   0.114943531409E-05   7   5   5   4
   0.314613827069E-12   7   5   5   5
  -0.228155979078E-16   7   5   6   1
  -0.104592766527E-14   7   5   6   2
  -0.249046448273E-14   7   5   6   3
   0.283247619038E-16   7   5   6   4
  -0.698215611169E-15   7   5   6   5
   0.544470915906E-13   7   5   6   6
  -0.485644949221E-16   7   5   7   1
  -0.892567772075E-05   7   5   7   2
  -0.141081764882E-04   7   5   7   3
  -0.626032182243E-02   7   5   7   4
   0.217034522272E-01   7   5   7   5
   0.109617977197E-15   7   6   1   1
   0.119064524214E-15   7   6   2   1
  -0.195521578541E-01   7   6   2   2
  -0.498402347839E-16   7   6   3   1
  -0.615135084079E-02   7   6   3   2
   0.195521378300E-01   7   6   3   3
   0.180948260753E-16   7   6   4   1
   0.417391645725E-04   7   6   4   2
  -0.352921211778E-04   7   6   4   3
   0.200240735388E-07   7   6   4   4
  -0.205809248194E-16   7   6   5   1
  -0.104901981199E-14   7   6   5   2
  -0.249401736242E-14   7   6   5   3
  -0.234870324873E-16   7   6   5   4
  -0.618684961364E-15   7   6   5   5
   0.242054589763E-16   7   6   6   1
   0.504746572288E-02   7   6   6   2
  -0.370337636283E-02   7   6   6   3
   0.114943532932E-05   7   6   6   4
   0.544548198309E-13   7   6   6   5
   0.205994490348E-10   7   6   6   6
   0.552863967434E-16   7   6   7   1
  -0.370336578510E-02   7   6   7   2
  -0.504744613683E-02   7   6   7   3
   0.166549441613E-04   7   6   7   4
   0.139203919239E-13   7   6   7   5
   0.217034522286E-01   7   6   7   6
   0.479122705203       7   7   1   1
  -0.685875410272E-16   7   7   2   1
   0.465425387441       7   7   2   2
   0.662784551231E-16   7   7   3   1
  -0.195522136939E-01   7   7   3   2
   0.453122623334       7   7   3   3
   0.304218129494E-17   7   7   4   1
   0.606851774395E-05   7   7   4   2
  -0.445253249811E-05   7   7   4   3
   0.438776968898       7   7   4   4
  -0.138899209978E-15   7   7   5   1
  -0.175574055745E-03   7   7   5   2
  -0.277517276365E-03   7   7   5   3
  -0.123144721191       7   7   5   4
   0.435226367599       7   7   5   5
   0.144391925216E-15   7   7   6   1
  -0.728476841787E-01   7   7   6   2
  -0.992866445113E-01   7   7   6   3
   0.327613901243E-03   7   7   6   4
   0.136095561903E-13   7   7   6   5
   0.435226367600       7   7   6   6
  -0.767424410450E-16   7   7   7   1
   0.109381961254       7   7   7   2
  -0.802546449900E-01   7   7   7   3
   0.249090330907E-04   7   7   7   4
  -0.369087518794E-12   7   7   7   5
  -0.205985293926E-10   7   7   7   6
   0.478633272681       7   7   7   7
  -0.122220134652       8   1   1   1
  -0.348236932611E-16   8   1   2   1
  -0.103589990686       8   1   2   2
  -0.140076126135E-16   8   1   3   1
  -0.352049876092E-16   8   1   3   2
  -0.103589990686       8   1   3   3
   0.290830218366E-16   8   1   4   1
  -0.400112445075E-14   8   1   4   2
   0.271725204864E-14   8   1   4   3
  -0.103589990679       8   1   4   4
   0.568001422367E-16   8   1   5   1
   0.124213400406E-03   8   1   5   2
   0.196335184183E-03   8   1   5   3
   0.871212121694E-01   8   1   5   4
  -0.109503270044       8   1   5   5
  -0.387137497689E-16   8   1   6   1
   0.515375607502E-01   8   1   6   2
   0.702423355109E-01   8   1   6   3
  -0.231777049993E-03   8   1   6   4
  -0.128564693613E-13   8   1   6   5
  -0.109503270049       8   1   6   6
   0.142263965633E-16   8   1   7   1
  -0.702426080784E-01   8   1   7   2
   0.515377079542E-01   8   1   7   3
  -0.159960145896E-04   8   1   7   4
   0.245140144078E-14   8   1   7   5
  -0.772166352024E-16   8   1   7   6
  -0.109503270049       8   1   7   7
   0.809924455059E-01   8   1   8   1
  -0.139289501671E-15   8   2   1   1
  -0.119941639981E-01   8   2   2   1
  -0.124253487257E-15   8   2   2   2
  -0.448247134417E-16   8   2   3   1
  -0.283558282953E-17   8   2   3   2
  -0.115588187833E-15   8   2   3   3
  -0.867806205184E-14   8   2   4   1
   0.804858534968E-17   8   2   4   2
  -0.251682166297E-18   8   2   4   3
  -0.113754441873E-15   8   2   4   4
   0.453429542233E-04   8   2   5   1
   0.164639970619E-16   8   2   5   2
  -0.396716225519E-17   8   2   5   3
   0.816051925706E-16   8   2   5   4
  -0.112767047656E-15   8   2   5   5
   0.188133104006E-01   8   2   6   1
   0.345959651707E-16   8   2   6   2
   0.904137337039E-16   8   2   6   3
  -0.147249622545E-16   8   2   6   4
   0.231309392488E-16   8   2   6   5
  -0.190420667366E-15   8   2   6   6
  -0.256414151133E-01   8   2   7   1
  -0.611542074159E-16   8   2   7   2
   0.437430439249E-16   8   2   7   3
   0.126530145786E-16   8   2   7   4
   0.111818391870E-16   8   2   7   5
  -0.200708456980E-16   8   2   7   6
  -0.129725634769E-15   8   2   7   7
   0.122905986815E-15   8   2   8   1
   0.337139001040E-01   8   2   8   2
  -0.599457542248E-16   8   3   1   1
  -0.458522679853E-16   8   3   2   1
  -0.511503139586E-16   8   3   2   2
  -0.119941639981E-01   8   3   3   1
  -0.694848100649E-17   8   3   3   2
  -0.558197471079E-16   8   3   3   3
   0.599943091099E-14   8   3   4   1
  -0.271266597710E-18   8   3   4   2
   0.690110175341E-17   8   3   4   3
  -0.507407712107E-16   8   3   4   4
   0.716703450597E-04   8   3   5   1
  -0.404516901593E-17   8   3   5   2
   0.189246543948E-16   8   3   5   3
   0.371952623707E-16   8   3   5   4
  -0.456503389611E-16   8   3   5   5
   0.256413156151E-01   8   3   6   1
   0.490913660582E-16   8   3   6   2
   0.177534919458E-16   8   3   6   3
  -0.114519191701E-16   8   3   6   4
   0.551083718930E-17   8   3   6   5
  -0.100529875102E-15   8   3   6   6
   0.188133641360E-01   8   3   7   1
  -0.255806077616E-16   8   3   7   2
   0.428011026933E-16   8   3   7   3
  -0.781744481207E-17   8   3   7   4
  -0.144906020541E-16   8   3   7   5
   0.333775573361E-16   8   3   7   6
  -0.637780247820E-16   8   3   7   7
   0.461203599218E-16   8   3   8   1
   0.442017844025E-18   8   3   8   2
   0.337139001040E-01   8   3   8   3
   0.133187360254E-15   8   4   1   1
  -0.867850430892E-14   8   4   2   1
   0.115930070557E-15   8   4   2   2
   0.600319703123E-14   8   4   3   1
  -0.366476755347E-18   8   4   3   2
   0.114520707405E-15   8   4   3   3
  -0.119941639826E-01   8   4   4   1
  -0.507085371635E-17   8   4   4   2
  -0.237209346446E-17   8   4   4   3
   0.129275041441E-15   8   4   4   4
   0.318027935923E-01   8   4   5   1
   0.707753499507E-17   8   4   5   2
   0.546361999335E-17   8   4   5   3
  -0.848623329918E-16   8   4   5   4
   0.121464719661E-15   8   4   5   5
  -0.846080707190E-04   8   4   6   1
  -0.569081795703E-16   8   4   6   2
  -0.688085373584E-16   8   4   6   3
  -0.174301665025E-16   8   4   6   4
  -0.161973385345E-17   8   4   6   5
   0.132511565361E-15   8   4   6   6
  -0.583919734223E-05   8   4   7   1
   0.708722117083E-16   8   4   7   2
  -0.502258235651E-16   8   4   7   3
   0.187307066749E-16   8   4   7   4
  -0.912260220176E-17   8   4   7   5
  -0.134865703266E-16   8   4   7   6
   0.112609635117E-15   8   4   7   7
  -0.106573299195E-15   8   4   8   1
   0.139166075378E-14   8   4   8   2
  -0.964334590619E-15   8   4   8   3
   0.337139001015E-01   8   4   8   4
   0.188552822180E-16   8   5   1   1
   0.116043206740E-03   8   5   2   1
  -0.192911993123E-17   8   5   2   2
   0.183421146941E-03   8   5   3   1
   0.752986863312E-18   8   5   3   2
   0.103994163108E-16   8   5   3   3
   0.813907742766E-01   8   5   4   1
   0.606745559906E-17   8   5   4   2
   0.127512857280E-16   8   5   4   3
  -0.520130455500E-16   8   5   4   4
  -0.259817562481E-01   8   5   5   1
   0.685797550452E-17   8   5   5   2
   0.144832291367E-16   8   5   5   3
   0.265342252187E-16   8   5   5   4
   0.813559646438E-16   8   5   5   5
  -0.113302133607E-13   8   5   6   1
   0.586190981689E-16   8   5   6   2
   0.678274174856E-17   8   5   6   3
  -0.154102248044E-16   8   5   6   4
  -0.475934628034E-16   8   5   6   5
  -0.173601744066E-16   8   5   6   6
   0.214750358788E-14   8   5   7   1
   0.234124914511E-17   8   5   7   2
  -0.118169500738E-16   8   5   7   3
  -0.225408698868E-16   8   5   7   4
   0.430908530958E-16   8   5   7   5
   0.138268799864E-16   8   5   7   6
   0.853957884302E-17   8   5   7   7
   0.321336045581E-16   8   5   8   1
  -0.948657988844E-05   8   5   8   2
  -0.149947541994E-04   8   5   8   3
  -0.665372925956E-02   8   5   8   4
   0.734310032528E-01   8   5   8   5
   0.181717674007E-16   8   6   1   1
   0.481476539356E-01   8   6   2   1
   0.109815354925E-16   8   6   2   2
   0.656221135144E-01   8   6   3   1
   0.361517320491E-16   8   6   3   2
   0.301175423339E-16   8   6   3   3
  -0.216531807682E-03   8   6   4   1
  -0.220915376028E-16   8   6   4   2
  -0.212670419492E-16   8   6   4   3
   0.113377055956E-17   8   6   4   4
  -0.113275028552E-13   8   6   5   1
   0.433059683028E-16   8   6   5   2
   0.257346952068E-16   8   6   5   3
  -0.725226780182E-17   8   6   5   4
   0.358276649200E-17   8   6   5   5
  -0.259817562524E-01   8   6   6   1
  -0.160811781545E-15   8   6   6   2
  -0.110662334359E-15   8   6   6   3
   0.356296766358E-16   8   6   6   4
   0.234549791835E-16   8   6   6   5
   0.309352253779E-17   8   6   6   6
  -0.523974488410E-16   8   6   7   1
   0.236911923353E-16   8   6   7   2
   0.542832285499E-17   8   6   7   3
  -0.130683156313E-16   8   6   7   4
   0.779312907531E-17   8   6   7   5
   0.157913224704E-16   8   6   7   6
   0.144989451625E-16   8   6   7   7
  -0.475004957802E-16   8   6   8   1
  -0.393609051273E-02   8   6   8   2
  -0.536463477067E-02   8   6   8   3
   0.177015643011E-04   8   6   8   4
   0.171960205764E-13   8   6   8   5
   0.734310032592E-01   8   6   8   6
  -0.209594207938E-16   8   7   1   1
  -0.656223681537E-01   8   7   2   1
   0.634018374128E-17   8   7   2   2
   0.481477914572E-01   8   7   3   1
  -0.227489848885E-17   8   7   3   2
   0.285795109685E-16   8   7   3   3
  -0.149438693585E-04   8   7   4   1
   0.282423403087E-16   8   7   4   2
  -0.165174183140E-16   8   7   4   3
   0.216269444349E-16   8   7   4   4
   0.215007179177E-14   8   7   5   1
   0.309056957428E-16   8   7   5   2
  -0.388713136441E-16   8   7   5   3
  -0.539767031322E-17   8   7   5   4
   0.124090479218E-16   8   7   5   5
  -0.510966444620E-16   8   7   6   1
  -0.873683048241E-16   8   7   6   2
   0.128241487462E-15   8   7   6   3
  -0.417037594472E-16   8   7   6   4
   0.150975603171E-16   8   7   6   5
  -0.190589570753E-16   8   7   6   6
  -0.259817562524E-01   8   7   7   1
  -0.350930305309E-16   8   7   7   2
  -0.164207547069E-16   8   7   7   3
  -0.484892135887E-17   8   7   7   4
   0.609420753623E-16   8   7   7   5
  -0.803186560901E-16   8   7   7   6
   0.756529019372E-16   8   7   7   7
   0.132424915186E-16   8   7   8   1
   0.536465558754E-02   8   7   8   2
  -0.393610175518E-02   8   7   8   3
   0.122166747367E-05   8   7   8   4
  -0.321686450603E-14   8   7   8   5
   0.109081184165E-16   8   7   8   6
   0.734310032592E-01   8   7   8   7
   0.469379596825       8   8   1   1
   0.178412993013E-15   8   8   2   1
   0.443710082333       8   8   2   2
   0.489569305422E-16   8   8   3   1
   0.787225307425E-17   8   8   3   2
   0.443710082333       8   8   3   3
  -0.140501869550E-15   8   8   4   1
   0.868046140610E-15   8   8   4   2
  -0.516981477159E-15   8   8   4   3
   0.443710082332       8   8   4   4
  -0.514642622504E-16   8   8   5   1
  -0.154021716794E-03   8   8   5   2
  -0.243451045023E-03   8   8   5   3
  -0.108028269280       8   8   5   4
   0.431209907578       8   8   5   5
   0.329161285596E-16   8   8   6   1
  -0.639053722072E-01   8   8   6   2
  -0.870988562552E-01   8   8   6   3
   0.287398131247E-03   8   8   6   4
   0.438570620792E-14   8   8   6   5
   0.431209907580       8   8   6   6
  -0.156420690587E-16   8   8   7   1
   0.870991942326E-01   8   8   7   2
  -0.639055547368E-01   8   8   7   3
   0.198346846716E-04   8   8   7   4
  -0.880480584275E-15   8   8   7   5
   0.822155060198E-16   8   8   7   6
   0.431209907580       8   8   7   7
  -0.926055482396E-01   8   8   8   1
  -0.115128501706E-15   8   8   8   2
  -0.578468402359E-16   8   8   8   3
   0.114648251034E-15   8   8   8   4
  -0.129335821923E-15   8   8   8   5
   0.150752205421E-15   8   8   8   6
  -0.963683103612E-16   8   8   8   7
   0.421950337126       8   8   8   8
  -0.898763510498E-17   9   1   1   1
   0.109192307876E-16   9   1   2   1
  -0.294648393384E-05   9   1   2   2
   0.142286647208E-16   9   1   3   1
  -0.558554805476E-04   9   1   3   2
   0.188336360296E-04   9   1   3   3
   0.205558965679E-17   9   1   4   1
   0.991167601259E-02   9   1   4   2
   0.345032654453E-01   9   1   4   3
  -0.158871520958E-04   9   1   4   4
   0.575002951058E-17   9   1   5   1
  -0.263242045563E-02   9   1   5   2
  -0.916375754288E-02   9   1   5   3
  -0.201850854295E-04   9   1   5   4
   0.115244090750E-03   9   1   5   5
  -0.182963248990E-17   9   1   6   1
   0.194269566171E-04   9   1   6   2
   0.291219675079E-04   9   1   6   3
  -0.894564818266E-02   9   1   6   4
   0.231202476188E-01   9   1   6   5
  -0.151896920710E-03   9   1   6   6
  -0.407829314145E-17   9   1   7   1
   0.862806736648E-05   9   1   7   2
  -0.132371961479E-04   9   1   7   3
  -0.329849785598E-02   9   1   7   4
   0.852518303454E-02   9   1   7   5
  -0.828795513891E-05   9   1   7   6
   0.366528299603E-04   9   1   7   7
   0.184355267990E-17   9   1   8   1
  -0.416320544704E-17   9   1   8   2
   0.678065315943E-17   9   1   8   3
  -0.154141507371E-16   9   1   8   4
   0.176714655831E-16   9   1   8   5
  -0.128351019989E-16   9   1   8   6
  -0.849841644221E-17   9   1   8   7
  -0.547839443298E-17   9   1   8   8
   0.530096021162E-01   9   1   9   1
   0.340486780769E-16   9   2   1   1
  -0.645245351480E-05   9   2   2   1
   0.212787792065E-16   9   2   2   2
  -0.122316937740E-03   9   2   3   1
  -0.153573411429E-17   9   2   3   2
   0.258321957737E-16   9   2   3   3
   0.217054055536E-01   9   2   4   1
  -0.417762331034E-17   9   2   4   2
  -0.106556828735E-17   9   2   4   3
   0.167783387543E-16   9   2   4   4
  -0.674392676497E-02   9   2   5   1
   0.337036662894E-17   9   2   5   2
   0.592949869862E-17   9   2   5   3
  -0.746089613497E-17   9   2   5   4
   0.455465661492E-16   9   2   5   5
   0.497693947074E-04   9   2   6   1
   0.407562529410E-17   9   2   6   2
  -0.710001315336E-17   9   2   6   3
  -0.318931469864E-16   9   2   6   4
  -0.972534328346E-17   9   2   6   5
   0.150498766875E-16   9   2   6   6
   0.221040124190E-04   9   2   7   1
   0.175706659752E-16   9   2   7   2
  -0.122411806861E-16   9   2   7   3
  -0.757990827689E-18   9   2   7   4
   0.105302723826E-16   9   2   7   5
   0.308249906044E-17   9   2   7   6
   0.267353577853E-16   9   2   7   7
  -0.114506755946E-16   9   2   8   1
   0.522555199775E-06   9   2   8   2
   0.990589888543E-05   9   2   8   3
  -0.175782321151E-02   9   2   8   4
   0.160767673270E-01   9   2   8   5
  -0.118644671957E-03   9   2   8   6
  -0.526934940211E-04   9   2   8   7
  -0.647165229096E-17   9   2   8   8
  -0.173305891572E-17   9   2   9   1
   0.163139755359E-01   9   2   9   2
   0.229428146236E-16   9   3   1   1
  -0.122316937739E-03   9   3   2   1
  -0.749546390323E-17   9   3   2   2
   0.412434493963E-04   9   3   3   1
   0.563632055572E-17   9   3   3   2
   0.463970808027E-17   9   3   3   3
   0.755580961748E-01   9   3   4   1
  -0.110294069295E-16   9   3   4   2
   0.105289640315E-16   9   3   4   3
  -0.205133846422E-16   9   3   4   4
  -0.234763825926E-01   9   3   5   1
   0.105841434521E-16   9   3   5   2
   0.149012159828E-16   9   3   5   3
   0.684841345304E-17   9   3   5   4
   0.893339644650E-16   9   3   5   5
   0.746067808829E-04   9   3   6   1
   0.397758279201E-16   9   3   6   2
  -0.724227723378E-17   9   3   6   3
  -0.190783463899E-16   9   3   6   4
  -0.469341308686E-16   9   3   6   5
  -0.112266184367E-16   9   3   6   6
  -0.339120147788E-04   9   3   7   1
   0.221941633753E-17   9   3   7   2
  -0.117588794863E-16   9   3   7   3
  -0.267957570861E-16   9   3   7   4
   0.454396928661E-16   9   3   7   5
   0.108830231147E-16   9   3   7   6
   0.380412345021E-17   9   3   7   7
   0.184878567430E-16   9   3   8   1
   0.990589887985E-05   9   3   8   2
  -0.334012154300E-05   9   3   8   3
  -0.611911051123E-02   9   3   8   4
   0.559650710594E-01   9   3   8   5
  -0.177854223375E-03   9   3   8   6
   0.808424513200E-04   9   3   8   7
  -0.949529333119E-16   9   3   8   8
   0.810735056081E-17   9   3   9   1
   0.177244322659E-01   9   3   9   2
   0.729225207447E-01   9   3   9   3
   0.231323370884E-16   9   4   1   1
   0.217054055538E-01   9   4   2   1
   0.198269319704E-16   9   4   2   2
   0.755580961757E-01   9   4   3   1
  -0.557039752317E-18   9   4   3   2
   0.424974774523E-16   9   4   3   3
  -0.347909958815E-04   9   4   4   1